# vtk DataFile Version 2.0
Unstructured Grid Example
ASCII
DATASET UNSTRUCTURED_GRID

POINTS 4 float
0.025 0.025 0
0 0.025 0
0.025 0 0
0 0 0

CELLS 1 5
4 0 1 3 2

CELL_TYPES 1
9

POINT_DATA 4
SCALARS Temp float 1
LOOKUP_TABLE default
344.882
344.882
344.882
344.882
