# vtk DataFile Version 2.0
Unstructured Grid Example
ASCII
DATASET UNSTRUCTURED_GRID

POINTS 961 float
0.15 -0.00839746 0
0.146667 -0.00839746 0
0.143333 -0.00839746 0
0.14 -0.00839746 0
0.136667 -0.00839746 0
0.133333 -0.00839746 0
0.13 -0.00839746 0
0.126667 -0.00839746 0
0.123333 -0.00839746 0
0.12 -0.00839746 0
0.116667 -0.00839746 0
0.113333 -0.00839746 0
0.11 -0.00839746 0
0.106667 -0.00839746 0
0.103333 -0.00839746 0
0.1 -0.00839746 0
0.0966667 -0.00839746 0
0.0933333 -0.00839746 0
0.09 -0.00839746 0
0.0866667 -0.00839746 0
0.0833333 -0.00839746 0
0.08 -0.00839746 0
0.0766667 -0.00839746 0
0.0733333 -0.00839746 0
0.07 -0.00839746 0
0.0666667 -0.00839746 0
0.0633333 -0.00839746 0
0.06 -0.00839746 0
0.0566667 -0.00839746 0
0.0533333 -0.00839746 0
0.05 -0.00839746 0
0.148333 -0.0112842 0
0.145 -0.0112842 0
0.141667 -0.0112842 0
0.138333 -0.0112842 0
0.135 -0.0112842 0
0.131667 -0.0112842 0
0.128333 -0.0112842 0
0.125 -0.0112842 0
0.121667 -0.0112842 0
0.118333 -0.0112842 0
0.115 -0.0112842 0
0.111667 -0.0112842 0
0.108333 -0.0112842 0
0.105 -0.0112842 0
0.101667 -0.0112842 0
0.0983333 -0.0112842 0
0.095 -0.0112842 0
0.0916667 -0.0112842 0
0.0883333 -0.0112842 0
0.085 -0.0112842 0
0.0816667 -0.0112842 0
0.0783333 -0.0112842 0
0.075 -0.0112842 0
0.0716667 -0.0112842 0
0.0683333 -0.0112842 0
0.065 -0.0112842 0
0.0616667 -0.0112842 0
0.0583333 -0.0112842 0
0.055 -0.0112842 0
0.0516667 -0.0112842 0
0.0483333 -0.0112842 0
0.146667 -0.014171 0
0.143333 -0.014171 0
0.14 -0.014171 0
0.136667 -0.014171 0
0.133333 -0.014171 0
0.13 -0.014171 0
0.126667 -0.014171 0
0.123333 -0.014171 0
0.12 -0.014171 0
0.116667 -0.014171 0
0.113333 -0.014171 0
0.11 -0.014171 0
0.106667 -0.014171 0
0.103333 -0.014171 0
0.1 -0.014171 0
0.0966667 -0.014171 0
0.0933333 -0.014171 0
0.09 -0.014171 0
0.0866667 -0.014171 0
0.0833333 -0.014171 0
0.08 -0.014171 0
0.0766667 -0.014171 0
0.0733333 -0.014171 0
0.07 -0.014171 0
0.0666667 -0.014171 0
0.0633333 -0.014171 0
0.06 -0.014171 0
0.0566667 -0.014171 0
0.0533333 -0.014171 0
0.05 -0.014171 0
0.0466667 -0.014171 0
0.145 -0.0170577 0
0.141667 -0.0170577 0
0.138333 -0.0170577 0
0.135 -0.0170577 0
0.131667 -0.0170577 0
0.128333 -0.0170577 0
0.125 -0.0170577 0
0.121667 -0.0170577 0
0.118333 -0.0170577 0
0.115 -0.0170577 0
0.111667 -0.0170577 0
0.108333 -0.0170577 0
0.105 -0.0170577 0
0.101667 -0.0170577 0
0.0983333 -0.0170577 0
0.095 -0.0170577 0
0.0916667 -0.0170577 0
0.0883333 -0.0170577 0
0.085 -0.0170577 0
0.0816667 -0.0170577 0
0.0783333 -0.0170577 0
0.075 -0.0170577 0
0.0716667 -0.0170577 0
0.0683333 -0.0170577 0
0.065 -0.0170577 0
0.0616667 -0.0170577 0
0.0583333 -0.0170577 0
0.055 -0.0170577 0
0.0516667 -0.0170577 0
0.0483333 -0.0170577 0
0.045 -0.0170577 0
0.143333 -0.0199445 0
0.14 -0.0199445 0
0.136667 -0.0199445 0
0.133333 -0.0199445 0
0.13 -0.0199445 0
0.126667 -0.0199445 0
0.123333 -0.0199445 0
0.12 -0.0199445 0
0.116667 -0.0199445 0
0.113333 -0.0199445 0
0.11 -0.0199445 0
0.106667 -0.0199445 0
0.103333 -0.0199445 0
0.1 -0.0199445 0
0.0966667 -0.0199445 0
0.0933333 -0.0199445 0
0.09 -0.0199445 0
0.0866667 -0.0199445 0
0.0833333 -0.0199445 0
0.08 -0.0199445 0
0.0766667 -0.0199445 0
0.0733333 -0.0199445 0
0.07 -0.0199445 0
0.0666667 -0.0199445 0
0.0633333 -0.0199445 0
0.06 -0.0199445 0
0.0566667 -0.0199445 0
0.0533333 -0.0199445 0
0.05 -0.0199445 0
0.0466667 -0.0199445 0
0.0433333 -0.0199445 0
0.141667 -0.0228312 0
0.138333 -0.0228312 0
0.135 -0.0228312 0
0.131667 -0.0228312 0
0.128333 -0.0228312 0
0.125 -0.0228312 0
0.121667 -0.0228312 0
0.118333 -0.0228312 0
0.115 -0.0228312 0
0.111667 -0.0228312 0
0.108333 -0.0228312 0
0.105 -0.0228312 0
0.101667 -0.0228312 0
0.0983333 -0.0228312 0
0.095 -0.0228312 0
0.0916667 -0.0228312 0
0.0883333 -0.0228312 0
0.085 -0.0228312 0
0.0816667 -0.0228312 0
0.0783333 -0.0228312 0
0.075 -0.0228312 0
0.0716667 -0.0228312 0
0.0683333 -0.0228312 0
0.065 -0.0228312 0
0.0616667 -0.0228312 0
0.0583333 -0.0228312 0
0.055 -0.0228312 0
0.0516667 -0.0228312 0
0.0483333 -0.0228312 0
0.045 -0.0228312 0
0.0416667 -0.0228312 0
0.14 -0.025718 0
0.136667 -0.025718 0
0.133333 -0.025718 0
0.13 -0.025718 0
0.126667 -0.025718 0
0.123333 -0.025718 0
0.12 -0.025718 0
0.116667 -0.025718 0
0.113333 -0.025718 0
0.11 -0.025718 0
0.106667 -0.025718 0
0.103333 -0.025718 0
0.1 -0.025718 0
0.0966667 -0.025718 0
0.0933333 -0.025718 0
0.09 -0.025718 0
0.0866667 -0.025718 0
0.0833333 -0.025718 0
0.08 -0.025718 0
0.0766667 -0.025718 0
0.0733333 -0.025718 0
0.07 -0.025718 0
0.0666667 -0.025718 0
0.0633333 -0.025718 0
0.06 -0.025718 0
0.0566667 -0.025718 0
0.0533333 -0.025718 0
0.05 -0.025718 0
0.0466667 -0.025718 0
0.0433333 -0.025718 0
0.04 -0.025718 0
0.138333 -0.0286047 0
0.135 -0.0286047 0
0.131667 -0.0286047 0
0.128333 -0.0286047 0
0.125 -0.0286047 0
0.121667 -0.0286047 0
0.118333 -0.0286047 0
0.115 -0.0286047 0
0.111667 -0.0286047 0
0.108333 -0.0286047 0
0.105 -0.0286047 0
0.101667 -0.0286047 0
0.0983333 -0.0286047 0
0.095 -0.0286047 0
0.0916667 -0.0286047 0
0.0883333 -0.0286047 0
0.085 -0.0286047 0
0.0816667 -0.0286047 0
0.0783333 -0.0286047 0
0.075 -0.0286047 0
0.0716667 -0.0286047 0
0.0683333 -0.0286047 0
0.065 -0.0286047 0
0.0616667 -0.0286047 0
0.0583333 -0.0286047 0
0.055 -0.0286047 0
0.0516667 -0.0286047 0
0.0483333 -0.0286047 0
0.045 -0.0286047 0
0.0416667 -0.0286047 0
0.0383333 -0.0286047 0
0.136667 -0.0314915 0
0.133333 -0.0314915 0
0.13 -0.0314915 0
0.126667 -0.0314915 0
0.123333 -0.0314915 0
0.12 -0.0314915 0
0.116667 -0.0314915 0
0.113333 -0.0314915 0
0.11 -0.0314915 0
0.106667 -0.0314915 0
0.103333 -0.0314915 0
0.1 -0.0314915 0
0.0966667 -0.0314915 0
0.0933333 -0.0314915 0
0.09 -0.0314915 0
0.0866667 -0.0314915 0
0.0833333 -0.0314915 0
0.08 -0.0314915 0
0.0766667 -0.0314915 0
0.0733333 -0.0314915 0
0.07 -0.0314915 0
0.0666667 -0.0314915 0
0.0633333 -0.0314915 0
0.06 -0.0314915 0
0.0566667 -0.0314915 0
0.0533333 -0.0314915 0
0.05 -0.0314915 0
0.0466667 -0.0314915 0
0.0433333 -0.0314915 0
0.04 -0.0314915 0
0.0366667 -0.0314915 0
0.135 -0.0343782 0
0.131667 -0.0343782 0
0.128333 -0.0343782 0
0.125 -0.0343782 0
0.121667 -0.0343782 0
0.118333 -0.0343782 0
0.115 -0.0343782 0
0.111667 -0.0343782 0
0.108333 -0.0343782 0
0.105 -0.0343782 0
0.101667 -0.0343782 0
0.0983333 -0.0343782 0
0.095 -0.0343782 0
0.0916667 -0.0343782 0
0.0883333 -0.0343782 0
0.085 -0.0343782 0
0.0816667 -0.0343782 0
0.0783333 -0.0343782 0
0.075 -0.0343782 0
0.0716667 -0.0343782 0
0.0683333 -0.0343782 0
0.065 -0.0343782 0
0.0616667 -0.0343782 0
0.0583333 -0.0343782 0
0.055 -0.0343782 0
0.0516667 -0.0343782 0
0.0483333 -0.0343782 0
0.045 -0.0343782 0
0.0416667 -0.0343782 0
0.0383333 -0.0343782 0
0.035 -0.0343782 0
0.133333 -0.037265 0
0.13 -0.037265 0
0.126667 -0.037265 0
0.123333 -0.037265 0
0.12 -0.037265 0
0.116667 -0.037265 0
0.113333 -0.037265 0
0.11 -0.037265 0
0.106667 -0.037265 0
0.103333 -0.037265 0
0.1 -0.037265 0
0.0966667 -0.037265 0
0.0933333 -0.037265 0
0.09 -0.037265 0
0.0866667 -0.037265 0
0.0833333 -0.037265 0
0.08 -0.037265 0
0.0766667 -0.037265 0
0.0733333 -0.037265 0
0.07 -0.037265 0
0.0666667 -0.037265 0
0.0633333 -0.037265 0
0.06 -0.037265 0
0.0566667 -0.037265 0
0.0533333 -0.037265 0
0.05 -0.037265 0
0.0466667 -0.037265 0
0.0433333 -0.037265 0
0.04 -0.037265 0
0.0366667 -0.037265 0
0.0333333 -0.037265 0
0.131667 -0.0401517 0
0.128333 -0.0401517 0
0.125 -0.0401517 0
0.121667 -0.0401517 0
0.118333 -0.0401517 0
0.115 -0.0401517 0
0.111667 -0.0401517 0
0.108333 -0.0401517 0
0.105 -0.0401517 0
0.101667 -0.0401517 0
0.0983333 -0.0401517 0
0.095 -0.0401517 0
0.0916667 -0.0401517 0
0.0883333 -0.0401517 0
0.085 -0.0401517 0
0.0816667 -0.0401517 0
0.0783333 -0.0401517 0
0.075 -0.0401517 0
0.0716667 -0.0401517 0
0.0683333 -0.0401517 0
0.065 -0.0401517 0
0.0616667 -0.0401517 0
0.0583333 -0.0401517 0
0.055 -0.0401517 0
0.0516667 -0.0401517 0
0.0483333 -0.0401517 0
0.045 -0.0401517 0
0.0416667 -0.0401517 0
0.0383333 -0.0401517 0
0.035 -0.0401517 0
0.0316667 -0.0401517 0
0.13 -0.0430385 0
0.126667 -0.0430385 0
0.123333 -0.0430385 0
0.12 -0.0430385 0
0.116667 -0.0430385 0
0.113333 -0.0430385 0
0.11 -0.0430385 0
0.106667 -0.0430385 0
0.103333 -0.0430385 0
0.1 -0.0430385 0
0.0966667 -0.0430385 0
0.0933333 -0.0430385 0
0.09 -0.0430385 0
0.0866667 -0.0430385 0
0.0833333 -0.0430385 0
0.08 -0.0430385 0
0.0766667 -0.0430385 0
0.0733333 -0.0430385 0
0.07 -0.0430385 0
0.0666667 -0.0430385 0
0.0633333 -0.0430385 0
0.06 -0.0430385 0
0.0566667 -0.0430385 0
0.0533333 -0.0430385 0
0.05 -0.0430385 0
0.0466667 -0.0430385 0
0.0433333 -0.0430385 0
0.04 -0.0430385 0
0.0366667 -0.0430385 0
0.0333333 -0.0430385 0
0.03 -0.0430385 0
0.128333 -0.0459252 0
0.125 -0.0459252 0
0.121667 -0.0459252 0
0.118333 -0.0459252 0
0.115 -0.0459252 0
0.111667 -0.0459252 0
0.108333 -0.0459252 0
0.105 -0.0459252 0
0.101667 -0.0459252 0
0.0983333 -0.0459252 0
0.095 -0.0459252 0
0.0916667 -0.0459252 0
0.0883333 -0.0459252 0
0.085 -0.0459252 0
0.0816667 -0.0459252 0
0.0783333 -0.0459252 0
0.075 -0.0459252 0
0.0716667 -0.0459252 0
0.0683333 -0.0459252 0
0.065 -0.0459252 0
0.0616667 -0.0459252 0
0.0583333 -0.0459252 0
0.055 -0.0459252 0
0.0516667 -0.0459252 0
0.0483333 -0.0459252 0
0.045 -0.0459252 0
0.0416667 -0.0459252 0
0.0383333 -0.0459252 0
0.035 -0.0459252 0
0.0316667 -0.0459252 0
0.0283333 -0.0459252 0
0.126667 -0.048812 0
0.123333 -0.048812 0
0.12 -0.048812 0
0.116667 -0.048812 0
0.113333 -0.048812 0
0.11 -0.048812 0
0.106667 -0.048812 0
0.103333 -0.048812 0
0.1 -0.048812 0
0.0966667 -0.048812 0
0.0933333 -0.048812 0
0.09 -0.048812 0
0.0866667 -0.048812 0
0.0833333 -0.048812 0
0.08 -0.048812 0
0.0766667 -0.048812 0
0.0733333 -0.048812 0
0.07 -0.048812 0
0.0666667 -0.048812 0
0.0633333 -0.048812 0
0.06 -0.048812 0
0.0566667 -0.048812 0
0.0533333 -0.048812 0
0.05 -0.048812 0
0.0466667 -0.048812 0
0.0433333 -0.048812 0
0.04 -0.048812 0
0.0366667 -0.048812 0
0.0333333 -0.048812 0
0.03 -0.048812 0
0.0266667 -0.048812 0
0.125 -0.0516987 0
0.121667 -0.0516987 0
0.118333 -0.0516987 0
0.115 -0.0516987 0
0.111667 -0.0516987 0
0.108333 -0.0516987 0
[...]
POINT_DATA 961
SCALARS Temp float 1
LOOKUP_TABLE default
371.04
321.525
281.906
252.664
232.379
219.129
210.961
206.198
203.561
202.172
201.473
201.136
200.979
200.909
200.879
200.866
200.861
200.859
200.86
200.863
200.875
200.908
200.995
201.215
201.732
202.866
205.177
209.548
217.21
229.671
248.834
321.525
274.46
238.702
213.029
195.666
184.591
177.914
174.1
172.029
170.956
170.425
170.172
170.056
170.005
169.983
169.974
169.97
169.97
169.971
169.978
169.998
170.053
170.195
170.539
171.318
172.963
176.19
182.063
191.972
207.491
229.671
281.906
238.702
206.43
183.638
168.429
158.834
153.099
149.845
148.086
147.179
146.731
146.518
146.42
146.377
146.358
146.351
146.348
146.348
146.352
146.363
146.395
146.481
146.694
147.192
148.279
150.492
154.678
162.026
173.983
191.972
217.21
252.663
213.029
183.638
162.989
149.25
140.588
135.408
132.463
130.868
130.042
129.632
129.437
129.347
129.307
129.29
129.283
129.281
129.282
129.288
129.305
129.354
129.477
129.775
130.446
131.862
134.645
139.735
148.383
162.026
182.063
209.548
232.379
195.666
168.429
149.25
136.442
128.332
123.458
120.674
119.158
118.37
117.978
117.79
117.703
117.665
117.648
117.641
117.64
117.642
117.651
117.676
117.744
117.911
118.3
119.149
120.881
124.182
130.042
139.735
154.678
176.19
205.177
219.129
184.591
158.834
140.588
128.332
120.528
115.813
113.108
111.629
110.858
110.472
110.287
110.202
110.164
110.148
110.141
110.14
110.144
110.156
110.191
110.28
110.493
110.972
111.985
113.995
117.722
124.182
134.645
150.492
172.963
202.866
210.961
177.914
153.099
135.408
123.458
115.813
111.177
108.508
107.046
106.282
105.899
105.716
105.631
105.593
105.577
105.571
105.57
105.575
105.592
105.637
105.747
106.003
106.563
107.716
109.947
113.995
120.881
131.862
148.279
171.318
201.732
206.198
174.1
149.845
132.463
120.674
113.108
108.508
105.856
104.401
103.639
103.258
103.075
102.99
102.952
102.936
102.93
102.93
102.937
102.959
103.013
103.143
103.436
104.063
105.324
107.716
111.985
119.149
130.446
147.192
170.539
201.215
203.561
172.029
148.086
130.868
119.158
111.629
107.046
104.401
102.948
102.188
101.807
101.624
101.539
101.502
101.486
101.48
101.481
101.49
101.515
101.578
101.725
102.048
102.725
104.063
106.563
110.972
118.3
129.775
146.694
170.195
200.995
202.172
170.956
147.179
130.042
118.37
110.858
106.282
103.639
102.188
101.428
101.047
100.864
100.78
100.742
100.726
100.721
100.723
100.733
100.762
100.832
100.991
101.337
102.048
103.436
106.003
110.493
117.911
129.477
146.481
170.053
200.908
201.473
170.425
146.731
129.632
117.978
110.472
105.899
103.258
101.807
101.047
100.666
100.484
100.399
100.361
100.346
100.341
100.343
100.355
100.387
100.462
100.631
100.991
101.725
103.143
105.747
110.28
117.744
129.354
146.395
169.998
200.875
201.136
170.172
146.518
129.437
117.79
110.287
105.716
103.075
101.624
100.864
100.484
100.301
100.216
100.179
100.163
100.158
100.161
100.174
100.208
100.287
100.462
100.832
101.578
103.013
105.637
110.191
117.676
129.305
146.363
169.978
200.863
200.979
170.056
146.42
129.347
117.703
110.202
105.631
102.99
101.539
100.78
100.399
100.216
100.132
100.094
100.079
100.074
100.077
100.091
100.127
100.208
100.387
100.762
101.515
102.959
105.592
110.156
117.651
129.288
146.352
169.971
200.86
200.909
170.005
146.377
129.307
117.665
110.164
105.593
102.952
101.502
100.742
100.361
100.179
100.094
100.057
100.041
100.037
100.041
100.055
100.091
100.174
100.355
100.733
101.49
102.937
105.575
110.144
117.642
129.282
146.348
169.97
200.859
200.879
169.983
146.358
129.29
117.648
110.148
105.577
102.936
101.486
100.726
100.346
100.163
100.079
100.041
100.026
100.022
100.026
100.041
100.077
100.161
100.343
100.723
101.481
102.93
105.57
110.14
117.64
129.281
146.348
169.97
200.861
200.866
169.974
146.351
129.283
117.641
110.141
105.571
102.93
101.48
100.721
100.341
100.158
100.074
100.037
100.022
100.018
100.022
100.037
100.074
100.158
100.341
100.721
101.48
102.93
105.571
110.141
117.641
129.283
146.351
169.974
200.866
200.861
169.97
146.348
129.281
117.64
110.14
105.57
102.93
101.481
100.723
100.343
100.161
100.077
100.041
100.026
100.022
100.026
100.041
100.079
100.163
100.346
100.726
101.486
102.936
105.577
110.148
117.648
129.29
146.358
169.983
200.879
200.859
169.97
146.348
129.282
117.642
110.144
105.575
102.937
101.49
100.733
100.355
100.174
100.091
100.055
100.041
100.037
100.041
100.057
100.094
100.179
100.361
100.742
101.502
102.952
105.593
110.164
117.665
129.307
146.377
170.005
200.909
200.859
169.971
146.352
129.288
117.651
110.156
105.592
102.959
101.515
100.762
100.387
100.208
100.127
100.091
100.077
100.074
100.079
100.094
100.132
100.216
100.399
100.78
101.539
102.99
105.631
110.202
117.703
129.347
146.42
170.056
200.979
200.863
169.978
146.363
129.305
117.676
110.191
105.637
103.013
101.578
100.832
100.462
100.287
100.208
100.174
100.161
100.158
100.163
100.179
100.216
100.301
100.484
100.864
101.624
103.075
105.716
110.287
117.79
129.437
146.518
170.172
201.136
200.875
169.998
146.395
129.354
117.744
110.28
105.747
103.143
101.725
100.991
100.631
100.462
100.387
100.355
100.343
100.341
100.346
100.361
100.399
100.484
100.666
101.047
101.807
103.258
105.899
110.472
117.978
129.632
146.731
170.425
201.473
200.908
170.053
146.481
129.477
117.911
110.493
106.003
103.436
102.048
101.337
100.991
100.832
100.762
100.733
100.723
100.721
100.726
100.742
100.78
100.864
101.047
101.428
102.188
103.639
106.282
110.858
118.37
130.042
147.179
170.956
202.172
200.995
170.195
146.694
129.775
118.3
110.972
106.563
104.063
102.725
102.048
101.725
101.578
101.515
101.49
101.481
101.48
101.486
101.502
101.539
101.624
101.807
102.188
102.948
104.401
107.046
111.629
119.158
130.868
148.086
172.029
203.561
201.215
170.539
147.192
130.446
119.149
111.985
107.716
105.324
104.063
103.436
103.143
103.013
102.959
102.937
102.93
102.93
102.936
102.952
102.99
103.075
103.258
103.639
104.401
105.856
108.508
113.108
120.674
132.463
149.845
174.1
206.198
201.732
171.318
148.279
131.862
120.881
113.995
109.947
107.716
106.563
106.003
105.747
105.637
105.592
105.575
105.57
105.571
105.577
105.593
105.631
105.716
105.899
106.282
107.046
108.508
111.177
115.813
123.458
135.408
153.099
177.914
210.961
202.866
172.963
150.492
134.645
124.182
117.722
113.995
111.985
110.972
110.493
110.28
110.191
110.156
110.144
110.14
110.141
110.148
110.164
110.202
110.287
110.472
110.858
111.629
113.108
115.813
120.528
128.332
140.588
158.834
184.591
219.129
205.177
176.19
154.678
139.735
130.042
124.182
120.881
119.149
118.3
117.911
117.744
117.676
117.651
117.642
117.64
117.641
117.648
117.665
117.703
117.79
117.978
118.37
119.158
120.674
123.458
128.332
136.442
149.25
168.429
195.666
232.379
209.548
182.063
162.026
148.383
139.735
134.645
131.862
130.446
129.775
129.477
129.354
129.305
129.288
129.282
129.281
129.283
129.29
129.307
129.347
129.437
129.632
130.042
130.868
132.463
135.408
140.588
149.25
162.989
183.638
213.029
252.663
217.21
191.972
173.983
162.026
154.678
150.492
148.279
147.192
146.694
146.481
146.395
146.363
146.352
146.348
146.348
146.351
146.358
146.377
146.42
146.518
146.731
147.179
148.086
149.845
153.099
158.834
168.429
183.638
206.43
238.702
281.906
229.671
207.491
191.972
182.063
176.19
172.963
171.318
170.539
170.195
170.053
169.998
169.978
169.971
169.97
169.97
169.974
169.983
170.005
170.056
170.172
170.425
170.956
172.029
174.1
177.914
184.591
195.666
213.029
238.702
274.46
321.525
248.834
229.671
217.21
209.548
205.177
202.866
201.732
201.215
200.995
200.908
200.875
200.863
200.86
200.859
200.861
200.866
200.879
200.909
200.979
201.136
201.473
202.172
203.561
206.198
210.961
219.129
232.379
252.663
281.906
321.525
371.04
