# vtk DataFile Version 2.0
Unstructured Grid Example
ASCII
DATASET UNSTRUCTURED_GRID

POINTS 961 float
0.15 -0.00839746 0
0.146667 -0.00839746 0
0.143333 -0.00839746 0
0.14 -0.00839746 0
0.136667 -0.00839746 0
0.133333 -0.00839746 0
0.13 -0.00839746 0
0.126667 -0.00839746 0
0.123333 -0.00839746 0
0.12 -0.00839746 0
0.116667 -0.00839746 0
0.113333 -0.00839746 0
0.11 -0.00839746 0
0.106667 -0.00839746 0
0.103333 -0.00839746 0
0.1 -0.00839746 0
0.0966667 -0.00839746 0
0.0933333 -0.00839746 0
0.09 -0.00839746 0
0.0866667 -0.00839746 0
0.0833333 -0.00839746 0
0.08 -0.00839746 0
0.0766667 -0.00839746 0
0.0733333 -0.00839746 0
0.07 -0.00839746 0
0.0666667 -0.00839746 0
0.0633333 -0.00839746 0
0.06 -0.00839746 0
0.0566667 -0.00839746 0
0.0533333 -0.00839746 0
0.05 -0.00839746 0
0.148333 -0.0112842 0
0.145 -0.0112842 0
0.141667 -0.0112842 0
0.138333 -0.0112842 0
0.135 -0.0112842 0
0.131667 -0.0112842 0
0.128333 -0.0112842 0
0.125 -0.0112842 0
0.121667 -0.0112842 0
0.118333 -0.0112842 0
0.115 -0.0112842 0
0.111667 -0.0112842 0
0.108333 -0.0112842 0
0.105 -0.0112842 0
0.101667 -0.0112842 0
0.0983333 -0.0112842 0
0.095 -0.0112842 0
0.0916667 -0.0112842 0
0.0883333 -0.0112842 0
0.085 -0.0112842 0
0.0816667 -0.0112842 0
0.0783333 -0.0112842 0
0.075 -0.0112842 0
0.0716667 -0.0112842 0
0.0683333 -0.0112842 0
0.065 -0.0112842 0
0.0616667 -0.0112842 0
0.0583333 -0.0112842 0
0.055 -0.0112842 0
0.0516667 -0.0112842 0
0.0483333 -0.0112842 0
0.146667 -0.014171 0
0.143333 -0.014171 0
0.14 -0.014171 0
0.136667 -0.014171 0
0.133333 -0.014171 0
0.13 -0.014171 0
0.126667 -0.014171 0
0.123333 -0.014171 0
0.12 -0.014171 0
0.116667 -0.014171 0
0.113333 -0.014171 0
0.11 -0.014171 0
0.106667 -0.014171 0
0.103333 -0.014171 0
0.1 -0.014171 0
0.0966667 -0.014171 0
0.0933333 -0.014171 0
0.09 -0.014171 0
0.0866667 -0.014171 0
0.0833333 -0.014171 0
0.08 -0.014171 0
0.0766667 -0.014171 0
0.0733333 -0.014171 0
0.07 -0.014171 0
0.0666667 -0.014171 0
0.0633333 -0.014171 0
0.06 -0.014171 0
0.0566667 -0.014171 0
0.0533333 -0.014171 0
0.05 -0.014171 0
0.0466667 -0.014171 0
0.145 -0.0170577 0
0.141667 -0.0170577 0
0.138333 -0.0170577 0
0.135 -0.0170577 0
0.131667 -0.0170577 0
0.128333 -0.0170577 0
0.125 -0.0170577 0
0.121667 -0.0170577 0
0.118333 -0.0170577 0
0.115 -0.0170577 0
0.111667 -0.0170577 0
0.108333 -0.0170577 0
0.105 -0.0170577 0
0.101667 -0.0170577 0
0.0983333 -0.0170577 0
0.095 -0.0170577 0
0.0916667 -0.0170577 0
0.0883333 -0.0170577 0
0.085 -0.0170577 0
0.0816667 -0.0170577 0
0.0783333 -0.0170577 0
0.075 -0.0170577 0
0.0716667 -0.0170577 0
0.0683333 -0.0170577 0
0.065 -0.0170577 0
0.0616667 -0.0170577 0
0.0583333 -0.0170577 0
0.055 -0.0170577 0
0.0516667 -0.0170577 0
0.0483333 -0.0170577 0
0.045 -0.0170577 0
0.143333 -0.0199445 0
0.14 -0.0199445 0
0.136667 -0.0199445 0
0.133333 -0.0199445 0
0.13 -0.0199445 0
0.126667 -0.0199445 0
0.123333 -0.0199445 0
0.12 -0.0199445 0
0.116667 -0.0199445 0
0.113333 -0.0199445 0
0.11 -0.0199445 0
0.106667 -0.0199445 0
0.103333 -0.0199445 0
0.1 -0.0199445 0
0.0966667 -0.0199445 0
0.0933333 -0.0199445 0
0.09 -0.0199445 0
0.0866667 -0.0199445 0
0.0833333 -0.0199445 0
0.08 -0.0199445 0
0.0766667 -0.0199445 0
0.0733333 -0.0199445 0
0.07 -0.0199445 0
0.0666667 -0.0199445 0
0.0633333 -0.0199445 0
0.06 -0.0199445 0
0.0566667 -0.0199445 0
0.0533333 -0.0199445 0
0.05 -0.0199445 0
0.0466667 -0.0199445 0
0.0433333 -0.0199445 0
0.141667 -0.0228312 0
0.138333 -0.0228312 0
0.135 -0.0228312 0
0.131667 -0.0228312 0
0.128333 -0.0228312 0
0.125 -0.0228312 0
0.121667 -0.0228312 0
0.118333 -0.0228312 0
0.115 -0.0228312 0
0.111667 -0.0228312 0
0.108333 -0.0228312 0
0.105 -0.0228312 0
0.101667 -0.0228312 0
0.0983333 -0.0228312 0
0.095 -0.0228312 0
0.0916667 -0.0228312 0
0.0883333 -0.0228312 0
0.085 -0.0228312 0
0.0816667 -0.0228312 0
0.0783333 -0.0228312 0
0.075 -0.0228312 0
0.0716667 -0.0228312 0
0.0683333 -0.0228312 0
0.065 -0.0228312 0
0.0616667 -0.0228312 0
0.0583333 -0.0228312 0
0.055 -0.0228312 0
0.0516667 -0.0228312 0
0.0483333 -0.0228312 0
0.045 -0.0228312 0
0.0416667 -0.0228312 0
0.14 -0.025718 0
0.136667 -0.025718 0
0.133333 -0.025718 0
0.13 -0.025718 0
0.126667 -0.025718 0
0.123333 -0.025718 0
0.12 -0.025718 0
0.116667 -0.025718 0
0.113333 -0.025718 0
0.11 -0.025718 0
0.106667 -0.025718 0
0.103333 -0.025718 0
0.1 -0.025718 0
0.0966667 -0.025718 0
0.0933333 -0.025718 0
0.09 -0.025718 0
0.0866667 -0.025718 0
0.0833333 -0.025718 0
0.08 -0.025718 0
0.0766667 -0.025718 0
0.0733333 -0.025718 0
0.07 -0.025718 0
0.0666667 -0.025718 0
0.0633333 -0.025718 0
0.06 -0.025718 0
0.0566667 -0.025718 0
0.0533333 -0.025718 0
0.05 -0.025718 0
0.0466667 -0.025718 0
0.0433333 -0.025718 0
0.04 -0.025718 0
0.138333 -0.0286047 0
0.135 -0.0286047 0
0.131667 -0.0286047 0
0.128333 -0.0286047 0
0.125 -0.0286047 0
0.121667 -0.0286047 0
0.118333 -0.0286047 0
0.115 -0.0286047 0
0.111667 -0.0286047 0
0.108333 -0.0286047 0
0.105 -0.0286047 0
0.101667 -0.0286047 0
0.0983333 -0.0286047 0
0.095 -0.0286047 0
0.0916667 -0.0286047 0
0.0883333 -0.0286047 0
0.085 -0.0286047 0
0.0816667 -0.0286047 0
0.0783333 -0.0286047 0
0.075 -0.0286047 0
0.0716667 -0.0286047 0
0.0683333 -0.0286047 0
0.065 -0.0286047 0
0.0616667 -0.0286047 0
0.0583333 -0.0286047 0
0.055 -0.0286047 0
0.0516667 -0.0286047 0
0.0483333 -0.0286047 0
0.045 -0.0286047 0
0.0416667 -0.0286047 0
0.0383333 -0.0286047 0
0.136667 -0.0314915 0
0.133333 -0.0314915 0
0.13 -0.0314915 0
0.126667 -0.0314915 0
0.123333 -0.0314915 0
0.12 -0.0314915 0
0.116667 -0.0314915 0
0.113333 -0.0314915 0
0.11 -0.0314915 0
0.106667 -0.0314915 0
0.103333 -0.0314915 0
0.1 -0.0314915 0
0.0966667 -0.0314915 0
0.0933333 -0.0314915 0
0.09 -0.0314915 0
0.0866667 -0.0314915 0
0.0833333 -0.0314915 0
0.08 -0.0314915 0
0.0766667 -0.0314915 0
0.0733333 -0.0314915 0
0.07 -0.0314915 0
0.0666667 -0.0314915 0
0.0633333 -0.0314915 0
0.06 -0.0314915 0
0.0566667 -0.0314915 0
0.0533333 -0.0314915 0
0.05 -0.0314915 0
0.0466667 -0.0314915 0
0.0433333 -0.0314915 0
0.04 -0.0314915 0
0.0366667 -0.0314915 0
0.135 -0.0343782 0
0.131667 -0.0343782 0
0.128333 -0.0343782 0
0.125 -0.0343782 0
0.121667 -0.0343782 0
0.118333 -0.0343782 0
0.115 -0.0343782 0
0.111667 -0.0343782 0
0.108333 -0.0343782 0
0.105 -0.0343782 0
0.101667 -0.0343782 0
0.0983333 -0.0343782 0
0.095 -0.0343782 0
0.0916667 -0.0343782 0
0.0883333 -0.0343782 0
0.085 -0.0343782 0
0.0816667 -0.0343782 0
0.0783333 -0.0343782 0
0.075 -0.0343782 0
0.0716667 -0.0343782 0
0.0683333 -0.0343782 0
0.065 -0.0343782 0
0.0616667 -0.0343782 0
0.0583333 -0.0343782 0
0.055 -0.0343782 0
0.0516667 -0.0343782 0
0.0483333 -0.0343782 0
0.045 -0.0343782 0
0.0416667 -0.0343782 0
0.0383333 -0.0343782 0
0.035 -0.0343782 0
0.133333 -0.037265 0
0.13 -0.037265 0
0.126667 -0.037265 0
0.123333 -0.037265 0
0.12 -0.037265 0
0.116667 -0.037265 0
0.113333 -0.037265 0
0.11 -0.037265 0
0.106667 -0.037265 0
0.103333 -0.037265 0
0.1 -0.037265 0
0.0966667 -0.037265 0
0.0933333 -0.037265 0
0.09 -0.037265 0
0.0866667 -0.037265 0
0.0833333 -0.037265 0
0.08 -0.037265 0
0.0766667 -0.037265 0
0.0733333 -0.037265 0
0.07 -0.037265 0
0.0666667 -0.037265 0
0.0633333 -0.037265 0
0.06 -0.037265 0
0.0566667 -0.037265 0
0.0533333 -0.037265 0
0.05 -0.037265 0
0.0466667 -0.037265 0
0.0433333 -0.037265 0
0.04 -0.037265 0
0.0366667 -0.037265 0
0.0333333 -0.037265 0
0.131667 -0.0401517 0
0.128333 -0.0401517 0
0.125 -0.0401517 0
0.121667 -0.0401517 0
0.118333 -0.0401517 0
0.115 -0.0401517 0
0.111667 -0.0401517 0
0.108333 -0.0401517 0
0.105 -0.0401517 0
0.101667 -0.0401517 0
0.0983333 -0.0401517 0
0.095 -0.0401517 0
0.0916667 -0.0401517 0
0.0883333 -0.0401517 0
0.085 -0.0401517 0
0.0816667 -0.0401517 0
0.0783333 -0.0401517 0
0.075 -0.0401517 0
0.0716667 -0.0401517 0
0.0683333 -0.0401517 0
0.065 -0.0401517 0
0.0616667 -0.0401517 0
0.0583333 -0.0401517 0
0.055 -0.0401517 0
0.0516667 -0.0401517 0
0.0483333 -0.0401517 0
0.045 -0.0401517 0
0.0416667 -0.0401517 0
0.0383333 -0.0401517 0
0.035 -0.0401517 0
0.0316667 -0.0401517 0
0.13 -0.0430385 0
0.126667 -0.0430385 0
0.123333 -0.0430385 0
0.12 -0.0430385 0
0.116667 -0.0430385 0
0.113333 -0.0430385 0
0.11 -0.0430385 0
0.106667 -0.0430385 0
0.103333 -0.0430385 0
0.1 -0.0430385 0
0.0966667 -0.0430385 0
0.0933333 -0.0430385 0
0.09 -0.0430385 0
0.0866667 -0.0430385 0
0.0833333 -0.0430385 0
0.08 -0.0430385 0
0.0766667 -0.0430385 0
0.0733333 -0.0430385 0
0.07 -0.0430385 0
0.0666667 -0.0430385 0
0.0633333 -0.0430385 0
0.06 -0.0430385 0
0.0566667 -0.0430385 0
0.0533333 -0.0430385 0
0.05 -0.0430385 0
0.0466667 -0.0430385 0
0.0433333 -0.0430385 0
0.04 -0.0430385 0
0.0366667 -0.0430385 0
0.0333333 -0.0430385 0
0.03 -0.0430385 0
0.128333 -0.0459252 0
0.125 -0.0459252 0
0.121667 -0.0459252 0
0.118333 -0.0459252 0
0.115 -0.0459252 0
0.111667 -0.0459252 0
0.108333 -0.0459252 0
0.105 -0.0459252 0
0.101667 -0.0459252 0
0.0983333 -0.0459252 0
0.095 -0.0459252 0
0.0916667 -0.0459252 0
0.0883333 -0.0459252 0
0.085 -0.0459252 0
0.0816667 -0.0459252 0
0.0783333 -0.0459252 0
0.075 -0.0459252 0
0.0716667 -0.0459252 0
0.0683333 -0.0459252 0
0.065 -0.0459252 0
0.0616667 -0.0459252 0
0.0583333 -0.0459252 0
0.055 -0.0459252 0
0.0516667 -0.0459252 0
0.0483333 -0.0459252 0
0.045 -0.0459252 0
0.0416667 -0.0459252 0
0.0383333 -0.0459252 0
0.035 -0.0459252 0
0.0316667 -0.0459252 0
0.0283333 -0.0459252 0
0.126667 -0.048812 0
0.123333 -0.048812 0
0.12 -0.048812 0
0.116667 -0.048812 0
0.113333 -0.048812 0
0.11 -0.048812 0
0.106667 -0.048812 0
0.103333 -0.048812 0
0.1 -0.048812 0
0.0966667 -0.048812 0
0.0933333 -0.048812 0
0.09 -0.048812 0
0.0866667 -0.048812 0
0.0833333 -0.048812 0
0.08 -0.048812 0
0.0766667 -0.048812 0
0.0733333 -0.048812 0
0.07 -0.048812 0
0.0666667 -0.048812 0
0.0633333 -0.048812 0
0.06 -0.048812 0
0.0566667 -0.048812 0
0.0533333 -0.048812 0
0.05 -0.048812 0
0.0466667 -0.048812 0
0.0433333 -0.048812 0
0.04 -0.048812 0
0.0366667 -0.048812 0
0.0333333 -0.048812 0
0.03 -0.048812 0
0.0266667 -0.048812 0
0.125 -0.0516987 0
0.121667 -0.0516987 0
0.118333 -0.0516987 0
0.115 -0.0516987 0
0.111667 -0.0516987 0
0.108333 -0.0516987 0
[...]
POINT_DATA 961
SCALARS Temp float 1
LOOKUP_TABLE default
480.41
434.637
394.215
359.901
331.602
308.92
291.247
277.862
268.007
260.952
256.038
252.71
250.515
249.107
248.229
247.701
247.403
247.263
247.249
247.364
247.647
248.184
249.117
250.654
253.089
256.805
262.28
270.071
280.789
295.075
313.766
434.637
389.575
350.852
318.433
292.044
271.159
255.088
243.066
234.32
228.132
223.872
221.019
219.158
217.978
217.252
216.825
216.598
216.515
216.559
216.752
217.156
217.884
219.113
221.097
224.182
228.808
235.505
244.874
257.553
274.179
295.075
394.215
350.852
313.985
283.457
258.855
239.566
224.854
213.938
206.058
200.522
196.737
194.216
192.583
191.553
190.926
190.565
190.387
190.351
190.454
190.734
191.275
192.217
193.775
196.243
200.016
205.578
213.499
224.4
238.908
257.553
280.789
359.9
318.433
283.457
254.71
231.7
213.766
200.159
190.107
182.878
177.815
174.362
172.067
170.583
169.65
169.087
168.771
168.63
168.637
168.801
169.176
169.867
171.043
172.949
175.919
180.384
186.865
195.95
208.264
224.4
244.875
270.071
331.602
292.044
258.855
231.7
210.043
193.212
180.468
171.066
164.309
159.577
156.349
154.203
152.814
151.943
151.42
151.135
151.027
151.075
151.303
151.781
152.632
154.05
156.309
159.775
164.907
172.245
182.39
195.95
213.499
235.505
262.28
308.92
271.159
239.566
213.766
193.212
177.243
165.148
156.217
149.79
145.283
142.203
140.151
138.822
137.989
137.494
137.233
137.154
137.245
137.54
138.123
139.137
140.795
143.397
147.331
153.075
161.181
172.245
186.865
205.578
228.808
256.805
291.247
255.088
224.854
200.159
180.468
165.148
153.523
144.922
138.72
134.36
131.373
129.38
128.088
127.28
126.803
126.563
126.511
126.645
127.008
127.696
128.868
130.756
133.675
138.031
144.312
153.075
164.907
180.384
200.016
224.182
253.089
277.862
243.066
213.938
190.107
171.066
156.217
144.922
136.545
130.49
126.223
123.295
121.338
120.068
119.276
118.814
118.591
118.566
118.743
119.172
119.961
121.281
123.377
126.577
131.297
138.031
147.331
159.775
175.919
196.243
221.097
250.654
268.007
234.32
206.058
182.878
164.309
149.79
138.72
130.49
124.527
120.319
117.426
115.49
114.235
113.453
113.003
112.798
112.798
113.015
113.507
114.388
115.84
118.117
121.556
126.577
133.675
143.397
156.309
172.949
193.775
219.113
249.117
260.952
228.132
200.522
177.815
159.577
145.283
134.36
126.223
120.319
116.145
113.273
111.351
110.105
109.332
108.892
108.702
108.727
108.981
109.529
110.491
112.056
114.484
118.117
123.377
130.756
140.795
154.05
171.043
192.217
217.884
248.184
256.038
223.872
196.737
174.362
156.349
142.203
131.373
123.295
117.426
113.273
110.414
108.5
107.261
106.495
106.065
105.889
105.936
106.223
106.819
107.85
109.507
112.056
115.84
121.281
128.868
139.137
152.632
169.867
191.275
217.156
247.647
252.71
221.019
194.216
172.067
154.203
140.151
129.38
121.338
115.49
111.351
108.5
106.593
105.359
104.599
104.178
104.015
104.081
104.397
105.033
106.119
107.85
110.491
114.388
119.961
127.696
138.123
151.781
169.176
190.734
216.752
247.364
250.515
219.158
192.583
170.583
152.814
138.822
128.088
120.068
114.235
110.105
107.261
105.359
104.13
103.377
102.965
102.813
102.896
103.235
103.904
105.033
106.819
109.529
113.507
119.172
127.008
137.54
151.303
168.801
190.454
216.559
247.249
249.107
217.978
191.553
169.65
151.943
137.989
127.28
119.276
113.453
109.332
106.495
104.599
103.377
102.631
102.227
102.087
102.184
102.542
103.235
104.397
106.223
108.981
113.015
118.743
126.645
137.245
151.075
168.637
190.351
216.515
247.263
248.229
217.252
190.926
169.087
151.42
137.494
126.803
118.814
113.003
108.892
106.065
104.178
102.965
102.227
101.832
101.702
101.811
102.184
102.896
104.081
105.936
108.727
112.798
118.566
126.511
137.154
151.027
168.63
190.387
216.598
247.403
247.701
216.825
190.565
168.771
151.135
137.233
126.563
118.591
112.798
108.702
105.889
104.015
102.813
102.087
101.702
101.582
101.702
102.087
102.814
104.015
105.889
108.702
112.798
118.591
126.563
137.233
151.135
168.771
190.565
216.825
247.701
247.403
216.598
190.387
168.63
151.027
137.154
126.511
118.566
112.798
108.727
105.936
104.081
102.896
102.184
101.811
101.702
101.832
102.227
102.965
104.178
106.065
108.892
113.003
118.814
126.803
137.494
151.42
169.087
190.926
217.252
248.229
247.263
216.515
190.351
168.637
151.075
137.245
126.645
118.743
113.015
108.981
106.223
104.397
103.235
102.542
102.184
102.087
102.227
102.631
103.377
104.599
106.495
109.332
113.453
119.276
127.28
137.989
151.943
169.65
191.553
217.978
249.107
247.249
216.559
190.454
168.801
151.303
137.54
127.008
119.172
113.507
109.529
106.819
105.033
103.904
103.235
102.896
102.813
102.965
103.377
104.13
105.359
107.261
110.105
114.235
120.068
128.088
138.822
152.814
170.583
192.583
219.158
250.515
247.364
216.752
190.734
169.176
151.781
138.123
127.696
119.961
114.388
110.491
107.85
106.119
105.033
104.397
104.081
104.015
104.178
104.599
105.359
106.593
108.5
111.351
115.49
121.338
129.38
140.151
154.203
172.067
194.216
221.019
252.71
247.647
217.156
191.275
169.867
152.632
139.137
128.868
121.281
115.84
112.056
109.507
107.85
106.819
106.223
105.936
105.889
106.065
106.495
107.261
108.5
110.414
113.273
117.426
123.295
131.373
142.203
156.349
174.362
196.737
223.872
256.038
248.184
217.884
192.217
171.043
154.05
140.795
130.756
123.377
118.117
114.484
112.056
110.491
109.529
108.981
108.727
108.702
108.892
109.332
110.105
111.351
113.273
116.145
120.319
126.223
134.36
145.283
159.577
177.815
200.522
228.132
260.952
249.117
219.113
193.775
172.949
156.309
143.397
133.675
126.577
121.556
118.117
115.84
114.388
113.507
113.015
112.798
112.798
113.003
113.453
114.235
115.49
117.426
120.319
124.527
130.49
138.72
149.79
164.309
182.878
206.058
234.32
268.007
250.654
221.097
196.243
175.919
159.775
147.331
138.031
131.297
126.577
123.377
121.281
119.961
119.172
118.743
118.566
118.591
118.814
119.276
120.068
121.338
123.295
126.223
130.49
136.545
144.922
156.217
171.066
190.107
213.938
243.066
277.862
253.089
224.182
200.016
180.384
164.907
153.075
144.312
138.031
133.675
130.756
128.868
127.696
127.008
126.645
126.511
126.563
126.803
127.28
128.088
129.38
131.373
134.36
138.72
144.922
153.523
165.148
180.468
200.159
224.854
255.088
291.247
256.805
228.808
205.578
186.865
172.245
161.181
153.075
147.331
143.397
140.795
139.137
138.123
137.54
137.245
137.154
137.233
137.494
137.989
138.822
140.151
142.203
145.283
149.79
156.217
165.148
177.243
193.212
213.766
239.566
271.159
308.92
262.28
235.505
213.499
195.95
182.39
172.245
164.907
159.775
156.309
154.05
152.632
151.781
151.303
151.075
151.027
151.135
151.42
151.943
152.814
154.203
156.349
159.577
164.309
171.066
180.468
193.212
210.043
231.7
258.855
292.044
331.602
270.071
244.875
224.4
208.264
195.95
186.865
180.385
175.919
172.949
171.043
169.867
169.176
168.801
168.637
168.63
168.771
169.087
169.651
170.583
172.067
174.362
177.815
182.878
190.107
200.159
213.766
231.7
254.71
283.457
318.433
359.9
280.789
257.553
238.909
224.4
213.499
205.578
200.016
196.244
193.775
192.217
191.275
190.734
190.454
190.351
190.387
190.565
190.926
191.553
192.583
194.216
196.737
200.522
206.058
213.938
224.854
239.566
258.855
283.457
313.985
350.852
394.215
295.075
274.179
257.553
244.875
235.505
228.808
224.182
221.097
219.113
217.884
217.156
216.752
216.559
216.515
216.598
216.825
217.252
217.978
219.158
221.019
223.872
228.132
234.32
243.066
255.088
271.159
292.044
318.433
350.852
389.575
434.637
313.766
295.075
280.789
270.071
262.28
256.805
253.089
250.654
249.117
248.184
247.647
247.364
247.249
247.263
247.403
247.701
248.229
249.107
250.515
252.71
256.038
260.952
268.007
277.862
291.247
308.92
331.602
359.9
394.215
434.637
480.409
