# vtk DataFile Version 2.0
Unstructured Grid Example
ASCII
DATASET UNSTRUCTURED_GRID

POINTS 961 float
0.15 -0.00839746 0
0.146667 -0.00839746 0
0.143333 -0.00839746 0
0.14 -0.00839746 0
0.136667 -0.00839746 0
0.133333 -0.00839746 0
0.13 -0.00839746 0
0.126667 -0.00839746 0
0.123333 -0.00839746 0
0.12 -0.00839746 0
0.116667 -0.00839746 0
0.113333 -0.00839746 0
0.11 -0.00839746 0
0.106667 -0.00839746 0
0.103333 -0.00839746 0
0.1 -0.00839746 0
0.0966667 -0.00839746 0
0.0933333 -0.00839746 0
0.09 -0.00839746 0
0.0866667 -0.00839746 0
0.0833333 -0.00839746 0
0.08 -0.00839746 0
0.0766667 -0.00839746 0
0.0733333 -0.00839746 0
0.07 -0.00839746 0
0.0666667 -0.00839746 0
0.0633333 -0.00839746 0
0.06 -0.00839746 0
0.0566667 -0.00839746 0
0.0533333 -0.00839746 0
0.05 -0.00839746 0
0.148333 -0.0112842 0
0.145 -0.0112842 0
0.141667 -0.0112842 0
0.138333 -0.0112842 0
0.135 -0.0112842 0
0.131667 -0.0112842 0
0.128333 -0.0112842 0
0.125 -0.0112842 0
0.121667 -0.0112842 0
0.118333 -0.0112842 0
0.115 -0.0112842 0
0.111667 -0.0112842 0
0.108333 -0.0112842 0
0.105 -0.0112842 0
0.101667 -0.0112842 0
0.0983333 -0.0112842 0
0.095 -0.0112842 0
0.0916667 -0.0112842 0
0.0883333 -0.0112842 0
0.085 -0.0112842 0
0.0816667 -0.0112842 0
0.0783333 -0.0112842 0
0.075 -0.0112842 0
0.0716667 -0.0112842 0
0.0683333 -0.0112842 0
0.065 -0.0112842 0
0.0616667 -0.0112842 0
0.0583333 -0.0112842 0
0.055 -0.0112842 0
0.0516667 -0.0112842 0
0.0483333 -0.0112842 0
0.146667 -0.014171 0
0.143333 -0.014171 0
0.14 -0.014171 0
0.136667 -0.014171 0
0.133333 -0.014171 0
0.13 -0.014171 0
0.126667 -0.014171 0
0.123333 -0.014171 0
0.12 -0.014171 0
0.116667 -0.014171 0
0.113333 -0.014171 0
0.11 -0.014171 0
0.106667 -0.014171 0
0.103333 -0.014171 0
0.1 -0.014171 0
0.0966667 -0.014171 0
0.0933333 -0.014171 0
0.09 -0.014171 0
0.0866667 -0.014171 0
0.0833333 -0.014171 0
0.08 -0.014171 0
0.0766667 -0.014171 0
0.0733333 -0.014171 0
0.07 -0.014171 0
0.0666667 -0.014171 0
0.0633333 -0.014171 0
0.06 -0.014171 0
0.0566667 -0.014171 0
0.0533333 -0.014171 0
0.05 -0.014171 0
0.0466667 -0.014171 0
0.145 -0.0170577 0
0.141667 -0.0170577 0
0.138333 -0.0170577 0
0.135 -0.0170577 0
0.131667 -0.0170577 0
0.128333 -0.0170577 0
0.125 -0.0170577 0
0.121667 -0.0170577 0
0.118333 -0.0170577 0
0.115 -0.0170577 0
0.111667 -0.0170577 0
0.108333 -0.0170577 0
0.105 -0.0170577 0
0.101667 -0.0170577 0
0.0983333 -0.0170577 0
0.095 -0.0170577 0
0.0916667 -0.0170577 0
0.0883333 -0.0170577 0
0.085 -0.0170577 0
0.0816667 -0.0170577 0
0.0783333 -0.0170577 0
0.075 -0.0170577 0
0.0716667 -0.0170577 0
0.0683333 -0.0170577 0
0.065 -0.0170577 0
0.0616667 -0.0170577 0
0.0583333 -0.0170577 0
0.055 -0.0170577 0
0.0516667 -0.0170577 0
0.0483333 -0.0170577 0
0.045 -0.0170577 0
0.143333 -0.0199445 0
0.14 -0.0199445 0
0.136667 -0.0199445 0
0.133333 -0.0199445 0
0.13 -0.0199445 0
0.126667 -0.0199445 0
0.123333 -0.0199445 0
0.12 -0.0199445 0
0.116667 -0.0199445 0
0.113333 -0.0199445 0
0.11 -0.0199445 0
0.106667 -0.0199445 0
0.103333 -0.0199445 0
0.1 -0.0199445 0
0.0966667 -0.0199445 0
0.0933333 -0.0199445 0
0.09 -0.0199445 0
0.0866667 -0.0199445 0
0.0833333 -0.0199445 0
0.08 -0.0199445 0
0.0766667 -0.0199445 0
0.0733333 -0.0199445 0
0.07 -0.0199445 0
0.0666667 -0.0199445 0
0.0633333 -0.0199445 0
0.06 -0.0199445 0
0.0566667 -0.0199445 0
0.0533333 -0.0199445 0
0.05 -0.0199445 0
0.0466667 -0.0199445 0
0.0433333 -0.0199445 0
0.141667 -0.0228312 0
0.138333 -0.0228312 0
0.135 -0.0228312 0
0.131667 -0.0228312 0
0.128333 -0.0228312 0
0.125 -0.0228312 0
0.121667 -0.0228312 0
0.118333 -0.0228312 0
0.115 -0.0228312 0
0.111667 -0.0228312 0
0.108333 -0.0228312 0
0.105 -0.0228312 0
0.101667 -0.0228312 0
0.0983333 -0.0228312 0
0.095 -0.0228312 0
0.0916667 -0.0228312 0
0.0883333 -0.0228312 0
0.085 -0.0228312 0
0.0816667 -0.0228312 0
0.0783333 -0.0228312 0
0.075 -0.0228312 0
0.0716667 -0.0228312 0
0.0683333 -0.0228312 0
0.065 -0.0228312 0
0.0616667 -0.0228312 0
0.0583333 -0.0228312 0
0.055 -0.0228312 0
0.0516667 -0.0228312 0
0.0483333 -0.0228312 0
0.045 -0.0228312 0
0.0416667 -0.0228312 0
0.14 -0.025718 0
0.136667 -0.025718 0
0.133333 -0.025718 0
0.13 -0.025718 0
0.126667 -0.025718 0
0.123333 -0.025718 0
0.12 -0.025718 0
0.116667 -0.025718 0
0.113333 -0.025718 0
0.11 -0.025718 0
0.106667 -0.025718 0
0.103333 -0.025718 0
0.1 -0.025718 0
0.0966667 -0.025718 0
0.0933333 -0.025718 0
0.09 -0.025718 0
0.0866667 -0.025718 0
0.0833333 -0.025718 0
0.08 -0.025718 0
0.0766667 -0.025718 0
0.0733333 -0.025718 0
0.07 -0.025718 0
0.0666667 -0.025718 0
0.0633333 -0.025718 0
0.06 -0.025718 0
0.0566667 -0.025718 0
0.0533333 -0.025718 0
0.05 -0.025718 0
0.0466667 -0.025718 0
0.0433333 -0.025718 0
0.04 -0.025718 0
0.138333 -0.0286047 0
0.135 -0.0286047 0
0.131667 -0.0286047 0
0.128333 -0.0286047 0
0.125 -0.0286047 0
0.121667 -0.0286047 0
0.118333 -0.0286047 0
0.115 -0.0286047 0
0.111667 -0.0286047 0
0.108333 -0.0286047 0
0.105 -0.0286047 0
0.101667 -0.0286047 0
0.0983333 -0.0286047 0
0.095 -0.0286047 0
0.0916667 -0.0286047 0
0.0883333 -0.0286047 0
0.085 -0.0286047 0
0.0816667 -0.0286047 0
0.0783333 -0.0286047 0
0.075 -0.0286047 0
0.0716667 -0.0286047 0
0.0683333 -0.0286047 0
0.065 -0.0286047 0
0.0616667 -0.0286047 0
0.0583333 -0.0286047 0
0.055 -0.0286047 0
0.0516667 -0.0286047 0
0.0483333 -0.0286047 0
0.045 -0.0286047 0
0.0416667 -0.0286047 0
0.0383333 -0.0286047 0
0.136667 -0.0314915 0
0.133333 -0.0314915 0
0.13 -0.0314915 0
0.126667 -0.0314915 0
0.123333 -0.0314915 0
0.12 -0.0314915 0
0.116667 -0.0314915 0
0.113333 -0.0314915 0
0.11 -0.0314915 0
0.106667 -0.0314915 0
0.103333 -0.0314915 0
0.1 -0.0314915 0
0.0966667 -0.0314915 0
0.0933333 -0.0314915 0
0.09 -0.0314915 0
0.0866667 -0.0314915 0
0.0833333 -0.0314915 0
0.08 -0.0314915 0
0.0766667 -0.0314915 0
0.0733333 -0.0314915 0
0.07 -0.0314915 0
0.0666667 -0.0314915 0
0.0633333 -0.0314915 0
0.06 -0.0314915 0
0.0566667 -0.0314915 0
0.0533333 -0.0314915 0
0.05 -0.0314915 0
0.0466667 -0.0314915 0
0.0433333 -0.0314915 0
0.04 -0.0314915 0
0.0366667 -0.0314915 0
0.135 -0.0343782 0
0.131667 -0.0343782 0
0.128333 -0.0343782 0
0.125 -0.0343782 0
0.121667 -0.0343782 0
0.118333 -0.0343782 0
0.115 -0.0343782 0
0.111667 -0.0343782 0
0.108333 -0.0343782 0
0.105 -0.0343782 0
0.101667 -0.0343782 0
0.0983333 -0.0343782 0
0.095 -0.0343782 0
0.0916667 -0.0343782 0
0.0883333 -0.0343782 0
0.085 -0.0343782 0
0.0816667 -0.0343782 0
0.0783333 -0.0343782 0
0.075 -0.0343782 0
0.0716667 -0.0343782 0
0.0683333 -0.0343782 0
0.065 -0.0343782 0
0.0616667 -0.0343782 0
0.0583333 -0.0343782 0
0.055 -0.0343782 0
0.0516667 -0.0343782 0
0.0483333 -0.0343782 0
0.045 -0.0343782 0
0.0416667 -0.0343782 0
0.0383333 -0.0343782 0
0.035 -0.0343782 0
0.133333 -0.037265 0
0.13 -0.037265 0
0.126667 -0.037265 0
0.123333 -0.037265 0
0.12 -0.037265 0
0.116667 -0.037265 0
0.113333 -0.037265 0
0.11 -0.037265 0
0.106667 -0.037265 0
0.103333 -0.037265 0
0.1 -0.037265 0
0.0966667 -0.037265 0
0.0933333 -0.037265 0
0.09 -0.037265 0
0.0866667 -0.037265 0
0.0833333 -0.037265 0
0.08 -0.037265 0
0.0766667 -0.037265 0
0.0733333 -0.037265 0
0.07 -0.037265 0
0.0666667 -0.037265 0
0.0633333 -0.037265 0
0.06 -0.037265 0
0.0566667 -0.037265 0
0.0533333 -0.037265 0
0.05 -0.037265 0
0.0466667 -0.037265 0
0.0433333 -0.037265 0
0.04 -0.037265 0
0.0366667 -0.037265 0
0.0333333 -0.037265 0
0.131667 -0.0401517 0
0.128333 -0.0401517 0
0.125 -0.0401517 0
0.121667 -0.0401517 0
0.118333 -0.0401517 0
0.115 -0.0401517 0
0.111667 -0.0401517 0
0.108333 -0.0401517 0
0.105 -0.0401517 0
0.101667 -0.0401517 0
0.0983333 -0.0401517 0
0.095 -0.0401517 0
0.0916667 -0.0401517 0
0.0883333 -0.0401517 0
0.085 -0.0401517 0
0.0816667 -0.0401517 0
0.0783333 -0.0401517 0
0.075 -0.0401517 0
0.0716667 -0.0401517 0
0.0683333 -0.0401517 0
0.065 -0.0401517 0
0.0616667 -0.0401517 0
0.0583333 -0.0401517 0
0.055 -0.0401517 0
0.0516667 -0.0401517 0
0.0483333 -0.0401517 0
0.045 -0.0401517 0
0.0416667 -0.0401517 0
0.0383333 -0.0401517 0
0.035 -0.0401517 0
0.0316667 -0.0401517 0
0.13 -0.0430385 0
0.126667 -0.0430385 0
0.123333 -0.0430385 0
0.12 -0.0430385 0
0.116667 -0.0430385 0
0.113333 -0.0430385 0
0.11 -0.0430385 0
0.106667 -0.0430385 0
0.103333 -0.0430385 0
0.1 -0.0430385 0
0.0966667 -0.0430385 0
0.0933333 -0.0430385 0
0.09 -0.0430385 0
0.0866667 -0.0430385 0
0.0833333 -0.0430385 0
0.08 -0.0430385 0
0.0766667 -0.0430385 0
0.0733333 -0.0430385 0
0.07 -0.0430385 0
0.0666667 -0.0430385 0
0.0633333 -0.0430385 0
0.06 -0.0430385 0
0.0566667 -0.0430385 0
0.0533333 -0.0430385 0
0.05 -0.0430385 0
0.0466667 -0.0430385 0
0.0433333 -0.0430385 0
0.04 -0.0430385 0
0.0366667 -0.0430385 0
0.0333333 -0.0430385 0
0.03 -0.0430385 0
0.128333 -0.0459252 0
0.125 -0.0459252 0
0.121667 -0.0459252 0
0.118333 -0.0459252 0
0.115 -0.0459252 0
0.111667 -0.0459252 0
0.108333 -0.0459252 0
0.105 -0.0459252 0
0.101667 -0.0459252 0
0.0983333 -0.0459252 0
0.095 -0.0459252 0
0.0916667 -0.0459252 0
0.0883333 -0.0459252 0
0.085 -0.0459252 0
0.0816667 -0.0459252 0
0.0783333 -0.0459252 0
0.075 -0.0459252 0
0.0716667 -0.0459252 0
0.0683333 -0.0459252 0
0.065 -0.0459252 0
0.0616667 -0.0459252 0
0.0583333 -0.0459252 0
0.055 -0.0459252 0
0.0516667 -0.0459252 0
0.0483333 -0.0459252 0
0.045 -0.0459252 0
0.0416667 -0.0459252 0
0.0383333 -0.0459252 0
0.035 -0.0459252 0
0.0316667 -0.0459252 0
0.0283333 -0.0459252 0
0.126667 -0.048812 0
0.123333 -0.048812 0
0.12 -0.048812 0
0.116667 -0.048812 0
0.113333 -0.048812 0
0.11 -0.048812 0
0.106667 -0.048812 0
0.103333 -0.048812 0
0.1 -0.048812 0
0.0966667 -0.048812 0
0.0933333 -0.048812 0
0.09 -0.048812 0
0.0866667 -0.048812 0
0.0833333 -0.048812 0
0.08 -0.048812 0
0.0766667 -0.048812 0
0.0733333 -0.048812 0
0.07 -0.048812 0
0.0666667 -0.048812 0
0.0633333 -0.048812 0
0.06 -0.048812 0
0.0566667 -0.048812 0
0.0533333 -0.048812 0
0.05 -0.048812 0
0.0466667 -0.048812 0
0.0433333 -0.048812 0
0.04 -0.048812 0
0.0366667 -0.048812 0
0.0333333 -0.048812 0
0.03 -0.048812 0
0.0266667 -0.048812 0
0.125 -0.0516987 0
0.121667 -0.0516987 0
0.118333 -0.0516987 0
0.115 -0.0516987 0
0.111667 -0.0516987 0
0.108333 -0.0516987 0
[...]
POINT_DATA 961
SCALARS Temp float 1
LOOKUP_TABLE default
456.895
410.099
369.405
335.588
308.418
287.299
271.417
259.858
251.715
246.16
242.487
240.134
238.671
237.788
237.271
236.979
236.824
236.757
236.757
236.829
237.007
237.362
238.018
239.17
241.106
244.227
249.053
256.218
266.442
280.49
299.343
410.099
364.293
325.676
294.094
269.095
249.945
235.747
225.557
218.475
213.706
210.594
208.624
207.414
206.692
206.275
206.045
205.93
205.893
205.925
206.045
206.305
206.8
207.691
209.221
211.738
215.712
221.734
230.499
242.761
259.287
280.49
369.405
325.676
289.246
259.814
236.773
219.3
206.466
197.334
191.037
186.828
184.098
182.38
181.33
180.707
180.35
180.157
180.067
180.055
180.121
180.297
180.653
181.312
182.469
184.417
187.557
192.419
199.644
209.96
224.117
242.761
266.442
335.588
294.094
259.814
232.333
210.963
194.851
183.073
174.723
168.983
165.155
162.676
161.117
160.165
159.601
159.28
159.11
159.039
159.05
159.153
159.393
159.857
160.697
162.143
164.527
168.3
174.033
182.402
194.138
209.96
230.499
256.218
308.418
269.095
236.773
210.963
190.953
175.894
164.897
157.103
151.743
148.164
145.844
144.382
143.488
142.959
142.659
142.504
142.45
142.485
142.628
142.937
143.52
144.55
146.29
149.107
153.487
160.032
169.428
182.402
199.644
221.734
249.053
287.299
249.945
219.3
194.851
175.894
161.616
151.174
143.759
138.648
135.227
133.003
131.599
130.739
130.229
129.942
129.798
129.76
129.819
130.006
130.389
131.093
132.313
134.338
137.562
142.496
149.756
160.032
174.033
192.419
215.712
244.227
271.417
235.747
206.467
183.073
164.897
151.174
141.11
133.944
128.99
125.665
123.498
122.127
121.286
120.788
120.509
120.376
120.352
120.438
120.669
121.126
121.948
123.349
125.636
129.223
134.636
142.496
153.487
168.3
187.557
211.738
241.106
259.858
225.557
197.334
174.723
157.103
143.759
133.944
126.935
122.077
118.809
116.675
115.322
114.491
114
113.728
113.604
113.595
113.707
113.982
114.51
115.442
117.006
119.522
123.417
129.223
137.562
149.107
164.527
184.417
209.221
239.17
251.715
218.475
191.037
168.983
151.743
138.648
128.99
122.077
117.276
114.04
111.924
110.582
109.757
109.27
109.004
108.888
108.895
109.031
109.347
109.94
110.969
112.671
115.378
119.522
125.636
134.338
146.29
162.143
182.469
207.691
238.018
246.16
213.706
186.828
165.155
148.164
135.227
125.665
118.809
114.04
110.822
108.716
107.379
106.559
106.076
105.814
105.707
105.727
105.886
106.239
106.888
107.998
109.814
112.671
117.006
123.349
132.313
144.55
160.697
181.312
206.8
237.362
242.487
210.594
184.098
162.676
145.844
133.003
123.498
116.675
111.924
108.716
106.616
105.282
104.464
103.984
103.727
103.627
103.66
103.84
104.223
104.918
106.094
107.998
110.969
115.442
121.948
131.093
143.52
159.857
180.653
206.305
237.007
240.134
208.624
182.38
161.117
144.382
131.599
122.127
115.322
110.582
107.379
105.282
103.951
103.135
102.658
102.405
102.312
102.356
102.552
102.961
103.692
104.918
106.888
109.94
114.51
121.126
130.389
142.937
159.393
180.297
206.045
236.829
238.671
207.414
181.33
160.165
143.488
130.739
121.286
114.491
109.757
106.559
104.464
103.135
102.321
101.847
101.599
101.512
101.564
101.774
102.203
102.961
104.223
106.239
109.347
113.982
120.669
130.006
142.628
159.153
180.121
205.925
236.757
237.788
206.692
180.707
159.601
142.959
130.229
120.788
114
109.27
106.076
103.984
102.658
101.847
101.376
101.132
101.05
101.11
101.331
101.774
102.552
103.84
105.886
109.031
113.707
120.438
129.819
142.485
159.05
180.055
205.893
236.757
237.271
206.275
180.35
159.28
142.659
129.942
120.509
113.728
109.004
105.814
103.727
102.405
101.599
101.132
100.892
100.815
100.881
101.11
101.564
102.356
103.66
105.727
108.895
113.595
120.352
129.76
142.45
159.039
180.067
205.93
236.824
236.979
206.045
180.157
159.11
142.504
129.798
120.376
113.604
108.888
105.707
103.627
102.312
101.512
101.05
100.815
100.743
100.815
101.05
101.512
102.312
103.627
105.707
108.888
113.604
120.376
129.798
142.504
159.11
180.157
206.045
236.979
236.824
205.93
180.067
159.039
142.45
129.76
120.352
113.596
108.895
105.727
103.66
102.356
101.564
101.11
100.881
100.815
100.892
101.132
101.599
102.405
103.727
105.814
109.004
113.728
120.509
129.942
142.659
159.28
180.35
206.275
237.271
236.757
205.893
180.055
159.05
142.485
129.819
120.438
113.707
109.031
105.886
103.84
102.552
101.774
101.331
101.11
101.05
101.132
101.376
101.847
102.658
103.984
106.076
109.27
114
120.788
130.229
142.959
159.601
180.707
206.692
237.788
236.757
205.925
180.121
159.153
142.628
130.006
120.669
113.982
109.347
106.239
104.223
102.961
102.203
101.774
101.564
101.512
101.599
101.847
102.321
103.135
104.464
106.559
109.757
114.491
121.286
130.739
143.488
160.165
181.33
207.414
238.671
236.829
206.045
180.297
159.393
142.937
130.389
121.126
114.51
109.94
106.888
104.918
103.692
102.961
102.552
102.356
102.312
102.405
102.658
103.135
103.951
105.282
107.379
110.582
115.322
122.127
131.599
144.382
161.117
182.38
208.624
240.134
237.007
206.305
180.653
159.857
143.52
131.093
121.948
115.442
110.969
107.998
106.094
104.918
104.223
103.84
103.66
103.627
103.727
103.984
104.464
105.282
106.616
108.716
111.924
116.675
123.498
133.003
145.844
162.676
184.098
210.594
242.487
237.362
206.8
181.312
160.697
144.55
132.313
123.349
117.006
112.671
109.814
107.998
106.888
106.239
105.886
105.727
105.707
105.814
106.076
106.559
107.379
108.716
110.822
114.04
118.809
125.665
135.227
148.164
165.155
186.828
213.706
246.16
238.018
207.691
182.469
162.143
146.29
134.338
125.636
119.522
115.378
112.671
110.969
109.94
109.347
109.031
108.895
108.888
109.004
109.27
109.757
110.582
111.924
114.04
117.276
122.077
128.99
138.648
151.743
168.983
191.037
218.475
251.715
239.17
209.221
184.417
164.527
149.107
137.562
129.223
123.417
119.522
117.006
115.442
114.51
113.982
113.707
113.596
113.604
113.728
114
114.491
115.322
116.675
118.809
122.077
126.935
133.944
143.759
157.103
174.723
197.334
225.557
259.858
241.106
211.738
187.557
168.3
153.487
142.496
134.636
129.223
125.636
123.349
121.948
121.126
120.669
120.438
120.352
120.376
120.509
120.788
121.286
122.127
123.498
125.665
128.99
133.944
141.11
151.174
164.897
183.073
206.466
235.747
271.417
244.227
215.712
192.419
174.033
160.032
149.756
142.496
137.562
134.338
132.313
131.093
130.389
130.006
129.819
129.76
129.798
129.942
130.229
130.739
131.599
133.003
135.227
138.648
143.759
151.174
161.616
175.894
194.851
219.3
249.945
287.299
249.053
221.734
199.644
182.402
169.428
160.032
153.487
149.107
146.29
144.55
143.52
142.937
142.628
142.485
142.45
142.504
142.659
142.959
143.488
144.382
145.844
148.164
151.743
157.103
164.897
175.894
190.953
210.963
236.773
269.095
308.418
256.218
230.499
209.96
194.139
182.402
174.033
168.3
164.527
162.143
160.697
159.858
159.393
159.153
159.05
159.039
159.11
159.28
159.601
160.165
161.117
162.676
165.155
168.983
174.723
183.073
194.851
210.963
232.333
259.814
294.094
335.588
266.442
242.761
224.117
209.96
199.644
192.419
187.557
184.417
182.469
181.312
180.653
180.297
180.121
180.055
180.067
180.157
180.35
180.707
181.33
182.38
184.098
186.828
191.037
197.334
206.467
219.3
236.773
259.814
289.246
325.676
369.405
280.49
259.287
242.761
230.499
221.735
215.712
211.738
209.221
207.691
206.8
206.305
206.045
205.925
205.893
205.93
206.045
206.275
206.692
207.414
208.624
210.594
213.706
218.475
225.557
235.747
249.945
269.095
294.094
325.676
364.293
410.099
299.343
280.49
266.442
256.218
249.053
244.227
241.106
239.17
238.018
237.362
237.007
236.829
236.757
236.757
236.824
236.979
237.271
237.788
238.671
240.134
242.487
246.16
251.715
259.858
271.417
287.299
308.418
335.588
369.405
410.099
456.895
