# vtk DataFile Version 2.0
Unstructured Grid Example
ASCII
DATASET UNSTRUCTURED_GRID

POINTS 961 float
0.15 -0.00839746 0
0.146667 -0.00839746 0
0.143333 -0.00839746 0
0.14 -0.00839746 0
0.136667 -0.00839746 0
0.133333 -0.00839746 0
0.13 -0.00839746 0
0.126667 -0.00839746 0
0.123333 -0.00839746 0
0.12 -0.00839746 0
0.116667 -0.00839746 0
0.113333 -0.00839746 0
0.11 -0.00839746 0
0.106667 -0.00839746 0
0.103333 -0.00839746 0
0.1 -0.00839746 0
0.0966667 -0.00839746 0
0.0933333 -0.00839746 0
0.09 -0.00839746 0
0.0866667 -0.00839746 0
0.0833333 -0.00839746 0
0.08 -0.00839746 0
0.0766667 -0.00839746 0
0.0733333 -0.00839746 0
0.07 -0.00839746 0
0.0666667 -0.00839746 0
0.0633333 -0.00839746 0
0.06 -0.00839746 0
0.0566667 -0.00839746 0
0.0533333 -0.00839746 0
0.05 -0.00839746 0
0.148333 -0.0112842 0
0.145 -0.0112842 0
0.141667 -0.0112842 0
0.138333 -0.0112842 0
0.135 -0.0112842 0
0.131667 -0.0112842 0
0.128333 -0.0112842 0
0.125 -0.0112842 0
0.121667 -0.0112842 0
0.118333 -0.0112842 0
0.115 -0.0112842 0
0.111667 -0.0112842 0
0.108333 -0.0112842 0
0.105 -0.0112842 0
0.101667 -0.0112842 0
0.0983333 -0.0112842 0
0.095 -0.0112842 0
0.0916667 -0.0112842 0
0.0883333 -0.0112842 0
0.085 -0.0112842 0
0.0816667 -0.0112842 0
0.0783333 -0.0112842 0
0.075 -0.0112842 0
0.0716667 -0.0112842 0
0.0683333 -0.0112842 0
0.065 -0.0112842 0
0.0616667 -0.0112842 0
0.0583333 -0.0112842 0
0.055 -0.0112842 0
0.0516667 -0.0112842 0
0.0483333 -0.0112842 0
0.146667 -0.014171 0
0.143333 -0.014171 0
0.14 -0.014171 0
0.136667 -0.014171 0
0.133333 -0.014171 0
0.13 -0.014171 0
0.126667 -0.014171 0
0.123333 -0.014171 0
0.12 -0.014171 0
0.116667 -0.014171 0
0.113333 -0.014171 0
0.11 -0.014171 0
0.106667 -0.014171 0
0.103333 -0.014171 0
0.1 -0.014171 0
0.0966667 -0.014171 0
0.0933333 -0.014171 0
0.09 -0.014171 0
0.0866667 -0.014171 0
0.0833333 -0.014171 0
0.08 -0.014171 0
0.0766667 -0.014171 0
0.0733333 -0.014171 0
0.07 -0.014171 0
0.0666667 -0.014171 0
0.0633333 -0.014171 0
0.06 -0.014171 0
0.0566667 -0.014171 0
0.0533333 -0.014171 0
0.05 -0.014171 0
0.0466667 -0.014171 0
0.145 -0.0170577 0
0.141667 -0.0170577 0
0.138333 -0.0170577 0
0.135 -0.0170577 0
0.131667 -0.0170577 0
0.128333 -0.0170577 0
0.125 -0.0170577 0
0.121667 -0.0170577 0
0.118333 -0.0170577 0
0.115 -0.0170577 0
0.111667 -0.0170577 0
0.108333 -0.0170577 0
0.105 -0.0170577 0
0.101667 -0.0170577 0
0.0983333 -0.0170577 0
0.095 -0.0170577 0
0.0916667 -0.0170577 0
0.0883333 -0.0170577 0
0.085 -0.0170577 0
0.0816667 -0.0170577 0
0.0783333 -0.0170577 0
0.075 -0.0170577 0
0.0716667 -0.0170577 0
0.0683333 -0.0170577 0
0.065 -0.0170577 0
0.0616667 -0.0170577 0
0.0583333 -0.0170577 0
0.055 -0.0170577 0
0.0516667 -0.0170577 0
0.0483333 -0.0170577 0
0.045 -0.0170577 0
0.143333 -0.0199445 0
0.14 -0.0199445 0
0.136667 -0.0199445 0
0.133333 -0.0199445 0
0.13 -0.0199445 0
0.126667 -0.0199445 0
0.123333 -0.0199445 0
0.12 -0.0199445 0
0.116667 -0.0199445 0
0.113333 -0.0199445 0
0.11 -0.0199445 0
0.106667 -0.0199445 0
0.103333 -0.0199445 0
0.1 -0.0199445 0
0.0966667 -0.0199445 0
0.0933333 -0.0199445 0
0.09 -0.0199445 0
0.0866667 -0.0199445 0
0.0833333 -0.0199445 0
0.08 -0.0199445 0
0.0766667 -0.0199445 0
0.0733333 -0.0199445 0
0.07 -0.0199445 0
0.0666667 -0.0199445 0
0.0633333 -0.0199445 0
0.06 -0.0199445 0
0.0566667 -0.0199445 0
0.0533333 -0.0199445 0
0.05 -0.0199445 0
0.0466667 -0.0199445 0
0.0433333 -0.0199445 0
0.141667 -0.0228312 0
0.138333 -0.0228312 0
0.135 -0.0228312 0
0.131667 -0.0228312 0
0.128333 -0.0228312 0
0.125 -0.0228312 0
0.121667 -0.0228312 0
0.118333 -0.0228312 0
0.115 -0.0228312 0
0.111667 -0.0228312 0
0.108333 -0.0228312 0
0.105 -0.0228312 0
0.101667 -0.0228312 0
0.0983333 -0.0228312 0
0.095 -0.0228312 0
0.0916667 -0.0228312 0
0.0883333 -0.0228312 0
0.085 -0.0228312 0
0.0816667 -0.0228312 0
0.0783333 -0.0228312 0
0.075 -0.0228312 0
0.0716667 -0.0228312 0
0.0683333 -0.0228312 0
0.065 -0.0228312 0
0.0616667 -0.0228312 0
0.0583333 -0.0228312 0
0.055 -0.0228312 0
0.0516667 -0.0228312 0
0.0483333 -0.0228312 0
0.045 -0.0228312 0
0.0416667 -0.0228312 0
0.14 -0.025718 0
0.136667 -0.025718 0
0.133333 -0.025718 0
0.13 -0.025718 0
0.126667 -0.025718 0
0.123333 -0.025718 0
0.12 -0.025718 0
0.116667 -0.025718 0
0.113333 -0.025718 0
0.11 -0.025718 0
0.106667 -0.025718 0
0.103333 -0.025718 0
0.1 -0.025718 0
0.0966667 -0.025718 0
0.0933333 -0.025718 0
0.09 -0.025718 0
0.0866667 -0.025718 0
0.0833333 -0.025718 0
0.08 -0.025718 0
0.0766667 -0.025718 0
0.0733333 -0.025718 0
0.07 -0.025718 0
0.0666667 -0.025718 0
0.0633333 -0.025718 0
0.06 -0.025718 0
0.0566667 -0.025718 0
0.0533333 -0.025718 0
0.05 -0.025718 0
0.0466667 -0.025718 0
0.0433333 -0.025718 0
0.04 -0.025718 0
0.138333 -0.0286047 0
0.135 -0.0286047 0
0.131667 -0.0286047 0
0.128333 -0.0286047 0
0.125 -0.0286047 0
0.121667 -0.0286047 0
0.118333 -0.0286047 0
0.115 -0.0286047 0
0.111667 -0.0286047 0
0.108333 -0.0286047 0
0.105 -0.0286047 0
0.101667 -0.0286047 0
0.0983333 -0.0286047 0
0.095 -0.0286047 0
0.0916667 -0.0286047 0
0.0883333 -0.0286047 0
0.085 -0.0286047 0
0.0816667 -0.0286047 0
0.0783333 -0.0286047 0
0.075 -0.0286047 0
0.0716667 -0.0286047 0
0.0683333 -0.0286047 0
0.065 -0.0286047 0
0.0616667 -0.0286047 0
0.0583333 -0.0286047 0
0.055 -0.0286047 0
0.0516667 -0.0286047 0
0.0483333 -0.0286047 0
0.045 -0.0286047 0
0.0416667 -0.0286047 0
0.0383333 -0.0286047 0
0.136667 -0.0314915 0
0.133333 -0.0314915 0
0.13 -0.0314915 0
0.126667 -0.0314915 0
0.123333 -0.0314915 0
0.12 -0.0314915 0
0.116667 -0.0314915 0
0.113333 -0.0314915 0
0.11 -0.0314915 0
0.106667 -0.0314915 0
0.103333 -0.0314915 0
0.1 -0.0314915 0
0.0966667 -0.0314915 0
0.0933333 -0.0314915 0
0.09 -0.0314915 0
0.0866667 -0.0314915 0
0.0833333 -0.0314915 0
0.08 -0.0314915 0
0.0766667 -0.0314915 0
0.0733333 -0.0314915 0
0.07 -0.0314915 0
0.0666667 -0.0314915 0
0.0633333 -0.0314915 0
0.06 -0.0314915 0
0.0566667 -0.0314915 0
0.0533333 -0.0314915 0
0.05 -0.0314915 0
0.0466667 -0.0314915 0
0.0433333 -0.0314915 0
0.04 -0.0314915 0
0.0366667 -0.0314915 0
0.135 -0.0343782 0
0.131667 -0.0343782 0
0.128333 -0.0343782 0
0.125 -0.0343782 0
0.121667 -0.0343782 0
0.118333 -0.0343782 0
0.115 -0.0343782 0
0.111667 -0.0343782 0
0.108333 -0.0343782 0
0.105 -0.0343782 0
0.101667 -0.0343782 0
0.0983333 -0.0343782 0
0.095 -0.0343782 0
0.0916667 -0.0343782 0
0.0883333 -0.0343782 0
0.085 -0.0343782 0
0.0816667 -0.0343782 0
0.0783333 -0.0343782 0
0.075 -0.0343782 0
0.0716667 -0.0343782 0
0.0683333 -0.0343782 0
0.065 -0.0343782 0
0.0616667 -0.0343782 0
0.0583333 -0.0343782 0
0.055 -0.0343782 0
0.0516667 -0.0343782 0
0.0483333 -0.0343782 0
0.045 -0.0343782 0
0.0416667 -0.0343782 0
0.0383333 -0.0343782 0
0.035 -0.0343782 0
0.133333 -0.037265 0
0.13 -0.037265 0
0.126667 -0.037265 0
0.123333 -0.037265 0
0.12 -0.037265 0
0.116667 -0.037265 0
0.113333 -0.037265 0
0.11 -0.037265 0
0.106667 -0.037265 0
0.103333 -0.037265 0
0.1 -0.037265 0
0.0966667 -0.037265 0
0.0933333 -0.037265 0
0.09 -0.037265 0
0.0866667 -0.037265 0
0.0833333 -0.037265 0
0.08 -0.037265 0
0.0766667 -0.037265 0
0.0733333 -0.037265 0
0.07 -0.037265 0
0.0666667 -0.037265 0
0.0633333 -0.037265 0
0.06 -0.037265 0
0.0566667 -0.037265 0
0.0533333 -0.037265 0
0.05 -0.037265 0
0.0466667 -0.037265 0
0.0433333 -0.037265 0
0.04 -0.037265 0
0.0366667 -0.037265 0
0.0333333 -0.037265 0
0.131667 -0.0401517 0
0.128333 -0.0401517 0
0.125 -0.0401517 0
0.121667 -0.0401517 0
0.118333 -0.0401517 0
0.115 -0.0401517 0
0.111667 -0.0401517 0
0.108333 -0.0401517 0
0.105 -0.0401517 0
0.101667 -0.0401517 0
0.0983333 -0.0401517 0
0.095 -0.0401517 0
0.0916667 -0.0401517 0
0.0883333 -0.0401517 0
0.085 -0.0401517 0
0.0816667 -0.0401517 0
0.0783333 -0.0401517 0
0.075 -0.0401517 0
0.0716667 -0.0401517 0
0.0683333 -0.0401517 0
0.065 -0.0401517 0
0.0616667 -0.0401517 0
0.0583333 -0.0401517 0
0.055 -0.0401517 0
0.0516667 -0.0401517 0
0.0483333 -0.0401517 0
0.045 -0.0401517 0
0.0416667 -0.0401517 0
0.0383333 -0.0401517 0
0.035 -0.0401517 0
0.0316667 -0.0401517 0
0.13 -0.0430385 0
0.126667 -0.0430385 0
0.123333 -0.0430385 0
0.12 -0.0430385 0
0.116667 -0.0430385 0
0.113333 -0.0430385 0
0.11 -0.0430385 0
0.106667 -0.0430385 0
0.103333 -0.0430385 0
0.1 -0.0430385 0
0.0966667 -0.0430385 0
0.0933333 -0.0430385 0
0.09 -0.0430385 0
0.0866667 -0.0430385 0
0.0833333 -0.0430385 0
0.08 -0.0430385 0
0.0766667 -0.0430385 0
0.0733333 -0.0430385 0
0.07 -0.0430385 0
0.0666667 -0.0430385 0
0.0633333 -0.0430385 0
0.06 -0.0430385 0
0.0566667 -0.0430385 0
0.0533333 -0.0430385 0
0.05 -0.0430385 0
0.0466667 -0.0430385 0
0.0433333 -0.0430385 0
0.04 -0.0430385 0
0.0366667 -0.0430385 0
0.0333333 -0.0430385 0
0.03 -0.0430385 0
0.128333 -0.0459252 0
0.125 -0.0459252 0
0.121667 -0.0459252 0
0.118333 -0.0459252 0
0.115 -0.0459252 0
0.111667 -0.0459252 0
0.108333 -0.0459252 0
0.105 -0.0459252 0
0.101667 -0.0459252 0
0.0983333 -0.0459252 0
0.095 -0.0459252 0
0.0916667 -0.0459252 0
0.0883333 -0.0459252 0
0.085 -0.0459252 0
0.0816667 -0.0459252 0
0.0783333 -0.0459252 0
0.075 -0.0459252 0
0.0716667 -0.0459252 0
0.0683333 -0.0459252 0
0.065 -0.0459252 0
0.0616667 -0.0459252 0
0.0583333 -0.0459252 0
0.055 -0.0459252 0
0.0516667 -0.0459252 0
0.0483333 -0.0459252 0
0.045 -0.0459252 0
0.0416667 -0.0459252 0
0.0383333 -0.0459252 0
0.035 -0.0459252 0
0.0316667 -0.0459252 0
0.0283333 -0.0459252 0
0.126667 -0.048812 0
0.123333 -0.048812 0
0.12 -0.048812 0
0.116667 -0.048812 0
0.113333 -0.048812 0
0.11 -0.048812 0
0.106667 -0.048812 0
0.103333 -0.048812 0
0.1 -0.048812 0
0.0966667 -0.048812 0
0.0933333 -0.048812 0
0.09 -0.048812 0
0.0866667 -0.048812 0
0.0833333 -0.048812 0
0.08 -0.048812 0
0.0766667 -0.048812 0
0.0733333 -0.048812 0
0.07 -0.048812 0
0.0666667 -0.048812 0
0.0633333 -0.048812 0
0.06 -0.048812 0
0.0566667 -0.048812 0
0.0533333 -0.048812 0
0.05 -0.048812 0
0.0466667 -0.048812 0
0.0433333 -0.048812 0
0.04 -0.048812 0
0.0366667 -0.048812 0
0.0333333 -0.048812 0
0.03 -0.048812 0
0.0266667 -0.048812 0
0.125 -0.0516987 0
0.121667 -0.0516987 0
0.118333 -0.0516987 0
0.115 -0.0516987 0
0.111667 -0.0516987 0
0.108333 -0.0516987 0
[...]
POINT_DATA 961
SCALARS Temp float 1
LOOKUP_TABLE default
496.352
451.319
411.181
376.672
347.771
324.179
305.411
290.859
279.86
271.758
265.939
261.863
259.08
257.227
256.028
255.279
254.84
254.624
254.588
254.732
255.1
255.781
256.924
258.743
261.525
265.641
271.533
279.709
290.719
305.13
323.698
451.319
406.831
368.161
335.332
308.162
286.24
268.998
255.779
245.899
238.7
233.584
230.039
227.644
226.067
225.06
224.446
224.105
223.97
224.017
224.267
224.787
225.695
227.176
229.485
232.959
238.012
245.136
254.872
267.788
284.449
305.13
411.181
368.161
331.135
300.021
274.511
254.11
238.198
226.096
217.117
210.62
206.035
202.877
200.756
199.37
198.494
197.972
197.703
197.636
197.764
198.126
198.814
199.974
201.824
204.66
208.857
214.872
223.224
234.473
249.173
267.788
290.719
376.672
335.332
300.021
270.563
246.57
227.496
212.698
201.495
193.218
187.25
183.05
180.165
178.234
176.976
176.189
175.732
175.519
175.513
175.723
176.207
177.075
178.505
180.744
184.12
189.045
196.001
205.526
218.176
234.473
254.872
279.709
347.77
308.162
274.511
246.57
223.902
205.941
192.042
181.539
173.79
168.207
164.279
161.582
159.778
158.606
157.878
157.469
157.303
157.356
157.651
158.262
159.321
161.028
163.659
167.569
173.194
181.033
191.63
205.526
223.224
245.136
271.533
324.179
286.24
254.11
227.496
205.941
188.878
175.678
165.702
158.337
153.026
149.285
146.714
144.993
143.877
143.191
142.819
142.695
142.807
143.189
143.93
145.182
147.164
150.174
154.59
160.861
169.496
181.033
196.001
214.872
238.012
265.641
305.411
268.998
238.199
212.698
192.042
175.678
163.005
153.414
146.32
141.195
137.579
135.09
133.422
132.344
131.688
131.347
131.263
131.432
131.901
132.772
134.211
136.455
139.819
144.693
151.537
160.861
173.194
189.045
208.857
232.959
261.525
290.859
255.779
226.096
201.495
181.539
165.702
153.414
144.093
137.185
132.184
128.649
126.213
124.58
123.527
122.895
122.581
122.535
122.761
123.314
124.309
125.923
128.406
132.086
137.36
144.693
154.59
167.569
184.12
204.66
229.485
258.743
279.86
245.899
217.117
193.218
173.79
158.337
146.32
137.185
130.401
125.481
121.998
119.594
117.985
116.951
116.337
116.048
116.038
116.318
116.951
118.059
119.83
122.525
126.475
132.086
139.819
150.174
163.659
180.744
201.824
227.176
256.924
271.758
238.7
210.62
187.25
168.207
153.026
141.195
132.184
125.481
120.612
117.162
114.78
113.186
112.166
111.569
111.302
111.326
111.656
112.36
113.569
115.478
118.35
122.525
128.406
136.455
147.164
161.028
178.505
199.974
225.695
255.781
265.939
233.584
206.035
183.05
164.279
149.285
137.579
128.649
121.998
117.162
113.732
111.364
109.782
108.774
108.192
107.947
108.001
108.375
109.143
110.438
112.46
115.478
119.83
125.923
134.211
145.182
159.321
177.075
198.814
224.787
255.1
261.863
230.039
202.876
180.165
161.582
146.714
135.09
126.213
119.594
114.78
111.364
109.008
107.435
106.438
105.87
105.643
105.726
106.138
106.958
108.324
110.438
113.569
118.059
124.309
132.772
143.93
158.262
176.207
198.126
224.267
254.732
259.08
227.644
200.756
178.234
159.778
144.993
133.422
124.58
117.985
113.186
109.782
107.435
105.872
104.885
104.33
104.122
104.228
104.673
105.536
106.958
109.143
112.36
116.951
123.314
131.901
143.189
157.651
175.723
197.764
224.017
254.588
257.227
226.067
199.37
176.976
158.606
143.877
132.344
123.527
116.951
112.166
108.774
106.438
104.885
103.91
103.368
103.176
103.303
103.775
104.673
106.138
108.375
111.656
116.318
122.761
131.432
142.807
157.356
175.513
197.636
223.97
254.624
256.028
225.061
198.494
176.189
157.878
143.191
131.688
122.895
116.337
111.569
108.192
105.87
104.33
103.368
102.841
102.664
102.809
103.303
104.228
105.726
108.001
111.326
116.038
122.535
131.263
142.695
157.303
175.519
197.703
224.105
254.84
255.279
224.446
197.972
175.732
157.469
142.819
131.347
122.581
116.048
111.302
107.947
105.643
104.122
103.176
102.664
102.502
102.664
103.176
104.122
105.643
107.947
111.302
116.048
122.581
131.347
142.819
157.469
175.732
197.972
224.446
255.279
254.84
224.105
197.703
175.519
157.303
142.695
131.263
122.535
116.038
111.326
108.001
105.726
104.228
103.303
102.809
102.664
102.841
103.368
104.33
105.87
108.192
111.569
116.337
122.895
131.688
143.191
157.878
176.189
198.494
225.06
256.028
254.624
223.97
197.636
175.513
157.356
142.807
131.432
122.761
116.318
111.656
108.375
106.138
104.673
103.775
103.303
103.176
103.368
103.91
104.885
106.438
108.774
112.166
116.951
123.527
132.344
143.877
158.606
176.976
199.37
226.067
257.227
254.588
224.017
197.764
175.723
157.651
143.189
131.901
123.314
116.951
112.36
109.143
106.958
105.536
104.673
104.228
104.122
104.33
104.885
105.872
107.435
109.782
113.186
117.985
124.58
133.422
144.993
159.778
178.234
200.756
227.644
259.08
254.732
224.267
198.126
176.207
158.262
143.93
132.772
124.309
118.059
113.569
110.438
108.324
106.958
106.138
105.726
105.643
105.87
106.438
107.435
109.008
111.364
114.78
119.594
126.213
135.09
146.714
161.582
180.165
202.876
230.039
261.863
255.1
224.787
198.814
177.075
159.321
145.182
134.211
125.923
119.83
115.478
112.46
110.438
109.143
108.375
108.001
107.947
108.192
108.774
109.782
111.364
113.732
117.162
121.998
128.649
137.579
149.285
164.279
183.05
206.035
233.584
265.939
255.781
225.695
199.974
178.505
161.028
147.164
136.455
128.406
122.525
118.35
115.478
113.569
112.36
111.656
111.326
111.302
111.569
112.166
113.186
114.78
117.162
120.612
125.481
132.184
141.195
153.026
168.207
187.25
210.62
238.7
271.758
256.924
227.176
201.824
180.744
163.659
150.174
139.819
132.086
126.476
122.525
119.83
118.059
116.951
116.318
116.038
116.048
116.337
116.951
117.985
119.594
121.998
125.481
130.401
137.185
146.32
158.337
173.79
193.218
217.117
245.899
279.86
258.743
229.485
204.66
184.12
167.569
154.59
144.693
137.36
132.086
128.406
125.923
124.309
123.314
122.761
122.535
122.581
122.895
123.527
124.58
126.213
128.649
132.184
137.185
144.093
153.414
165.702
181.539
201.495
226.096
255.779
290.859
261.525
232.959
208.857
189.045
173.194
160.861
151.537
144.693
139.819
136.455
134.211
132.772
131.901
131.432
131.263
131.347
131.688
132.344
133.422
135.09
137.579
141.195
146.32
153.414
163.006
175.678
192.042
212.698
238.198
268.998
305.411
265.641
238.012
214.872
196.001
181.033
169.496
160.861
154.59
150.174
147.164
145.182
143.93
143.189
142.807
142.695
142.819
143.191
143.877
144.993
146.714
149.285
153.026
158.337
165.702
175.678
188.878
205.941
227.496
254.11
286.24
324.179
271.533
245.136
223.224
205.526
191.63
181.033
173.194
167.569
163.659
161.028
159.321
158.262
157.651
157.356
157.303
157.469
157.878
158.606
159.778
161.582
164.279
168.207
173.79
181.539
192.042
205.941
223.902
246.57
274.511
308.162
347.77
279.709
254.872
234.473
218.176
205.526
196.001
189.045
184.12
180.744
178.505
177.075
176.207
175.723
175.513
175.519
175.732
176.189
176.976
178.234
180.165
183.05
187.25
193.218
201.495
212.698
227.496
246.57
270.563
300.021
335.332
376.672
290.719
267.788
249.173
234.473
223.224
214.872
208.857
204.66
201.824
199.974
198.814
198.126
197.764
197.636
197.703
197.972
198.494
199.37
200.756
202.877
206.035
210.62
217.117
226.096
238.199
254.11
274.511
300.021
331.134
368.161
411.181
305.13
284.449
267.788
254.872
245.136
238.012
232.959
229.485
227.176
225.695
224.787
224.267
224.017
223.97
224.105
224.446
225.06
226.067
227.644
230.039
233.584
238.7
245.899
255.779
268.998
286.24
308.162
335.332
368.161
406.831
451.319
323.698
305.13
290.719
279.709
271.533
265.641
261.525
258.743
256.924
255.781
255.1
254.732
254.588
254.624
254.84
255.279
256.028
257.227
259.08
261.863
265.939
271.758
279.86
290.859
305.411
324.179
347.77
376.672
411.181
451.319
496.351
