# vtk DataFile Version 2.0
Unstructured Grid Example
ASCII
DATASET UNSTRUCTURED_GRID

POINTS 961 float
0.15 -0.00839746 0
0.146667 -0.00839746 0
0.143333 -0.00839746 0
0.14 -0.00839746 0
0.136667 -0.00839746 0
0.133333 -0.00839746 0
0.13 -0.00839746 0
0.126667 -0.00839746 0
0.123333 -0.00839746 0
0.12 -0.00839746 0
0.116667 -0.00839746 0
0.113333 -0.00839746 0
0.11 -0.00839746 0
0.106667 -0.00839746 0
0.103333 -0.00839746 0
0.1 -0.00839746 0
0.0966667 -0.00839746 0
0.0933333 -0.00839746 0
0.09 -0.00839746 0
0.0866667 -0.00839746 0
0.0833333 -0.00839746 0
0.08 -0.00839746 0
0.0766667 -0.00839746 0
0.0733333 -0.00839746 0
0.07 -0.00839746 0
0.0666667 -0.00839746 0
0.0633333 -0.00839746 0
0.06 -0.00839746 0
0.0566667 -0.00839746 0
0.0533333 -0.00839746 0
0.05 -0.00839746 0
0.148333 -0.0112842 0
0.145 -0.0112842 0
0.141667 -0.0112842 0
0.138333 -0.0112842 0
0.135 -0.0112842 0
0.131667 -0.0112842 0
0.128333 -0.0112842 0
0.125 -0.0112842 0
0.121667 -0.0112842 0
0.118333 -0.0112842 0
0.115 -0.0112842 0
0.111667 -0.0112842 0
0.108333 -0.0112842 0
0.105 -0.0112842 0
0.101667 -0.0112842 0
0.0983333 -0.0112842 0
0.095 -0.0112842 0
0.0916667 -0.0112842 0
0.0883333 -0.0112842 0
0.085 -0.0112842 0
0.0816667 -0.0112842 0
0.0783333 -0.0112842 0
0.075 -0.0112842 0
0.0716667 -0.0112842 0
0.0683333 -0.0112842 0
0.065 -0.0112842 0
0.0616667 -0.0112842 0
0.0583333 -0.0112842 0
0.055 -0.0112842 0
0.0516667 -0.0112842 0
0.0483333 -0.0112842 0
0.146667 -0.014171 0
0.143333 -0.014171 0
0.14 -0.014171 0
0.136667 -0.014171 0
0.133333 -0.014171 0
0.13 -0.014171 0
0.126667 -0.014171 0
0.123333 -0.014171 0
0.12 -0.014171 0
0.116667 -0.014171 0
0.113333 -0.014171 0
0.11 -0.014171 0
0.106667 -0.014171 0
0.103333 -0.014171 0
0.1 -0.014171 0
0.0966667 -0.014171 0
0.0933333 -0.014171 0
0.09 -0.014171 0
0.0866667 -0.014171 0
0.0833333 -0.014171 0
0.08 -0.014171 0
0.0766667 -0.014171 0
0.0733333 -0.014171 0
0.07 -0.014171 0
0.0666667 -0.014171 0
0.0633333 -0.014171 0
0.06 -0.014171 0
0.0566667 -0.014171 0
0.0533333 -0.014171 0
0.05 -0.014171 0
0.0466667 -0.014171 0
0.145 -0.0170577 0
0.141667 -0.0170577 0
0.138333 -0.0170577 0
0.135 -0.0170577 0
0.131667 -0.0170577 0
0.128333 -0.0170577 0
0.125 -0.0170577 0
0.121667 -0.0170577 0
0.118333 -0.0170577 0
0.115 -0.0170577 0
0.111667 -0.0170577 0
0.108333 -0.0170577 0
0.105 -0.0170577 0
0.101667 -0.0170577 0
0.0983333 -0.0170577 0
0.095 -0.0170577 0
0.0916667 -0.0170577 0
0.0883333 -0.0170577 0
0.085 -0.0170577 0
0.0816667 -0.0170577 0
0.0783333 -0.0170577 0
0.075 -0.0170577 0
0.0716667 -0.0170577 0
0.0683333 -0.0170577 0
0.065 -0.0170577 0
0.0616667 -0.0170577 0
0.0583333 -0.0170577 0
0.055 -0.0170577 0
0.0516667 -0.0170577 0
0.0483333 -0.0170577 0
0.045 -0.0170577 0
0.143333 -0.0199445 0
0.14 -0.0199445 0
0.136667 -0.0199445 0
0.133333 -0.0199445 0
0.13 -0.0199445 0
0.126667 -0.0199445 0
0.123333 -0.0199445 0
0.12 -0.0199445 0
0.116667 -0.0199445 0
0.113333 -0.0199445 0
0.11 -0.0199445 0
0.106667 -0.0199445 0
0.103333 -0.0199445 0
0.1 -0.0199445 0
0.0966667 -0.0199445 0
0.0933333 -0.0199445 0
0.09 -0.0199445 0
0.0866667 -0.0199445 0
0.0833333 -0.0199445 0
0.08 -0.0199445 0
0.0766667 -0.0199445 0
0.0733333 -0.0199445 0
0.07 -0.0199445 0
0.0666667 -0.0199445 0
0.0633333 -0.0199445 0
0.06 -0.0199445 0
0.0566667 -0.0199445 0
0.0533333 -0.0199445 0
0.05 -0.0199445 0
0.0466667 -0.0199445 0
0.0433333 -0.0199445 0
0.141667 -0.0228312 0
0.138333 -0.0228312 0
0.135 -0.0228312 0
0.131667 -0.0228312 0
0.128333 -0.0228312 0
0.125 -0.0228312 0
0.121667 -0.0228312 0
0.118333 -0.0228312 0
0.115 -0.0228312 0
0.111667 -0.0228312 0
0.108333 -0.0228312 0
0.105 -0.0228312 0
0.101667 -0.0228312 0
0.0983333 -0.0228312 0
0.095 -0.0228312 0
0.0916667 -0.0228312 0
0.0883333 -0.0228312 0
0.085 -0.0228312 0
0.0816667 -0.0228312 0
0.0783333 -0.0228312 0
0.075 -0.0228312 0
0.0716667 -0.0228312 0
0.0683333 -0.0228312 0
0.065 -0.0228312 0
0.0616667 -0.0228312 0
0.0583333 -0.0228312 0
0.055 -0.0228312 0
0.0516667 -0.0228312 0
0.0483333 -0.0228312 0
0.045 -0.0228312 0
0.0416667 -0.0228312 0
0.14 -0.025718 0
0.136667 -0.025718 0
0.133333 -0.025718 0
0.13 -0.025718 0
0.126667 -0.025718 0
0.123333 -0.025718 0
0.12 -0.025718 0
0.116667 -0.025718 0
0.113333 -0.025718 0
0.11 -0.025718 0
0.106667 -0.025718 0
0.103333 -0.025718 0
0.1 -0.025718 0
0.0966667 -0.025718 0
0.0933333 -0.025718 0
0.09 -0.025718 0
0.0866667 -0.025718 0
0.0833333 -0.025718 0
0.08 -0.025718 0
0.0766667 -0.025718 0
0.0733333 -0.025718 0
0.07 -0.025718 0
0.0666667 -0.025718 0
0.0633333 -0.025718 0
0.06 -0.025718 0
0.0566667 -0.025718 0
0.0533333 -0.025718 0
0.05 -0.025718 0
0.0466667 -0.025718 0
0.0433333 -0.025718 0
0.04 -0.025718 0
0.138333 -0.0286047 0
0.135 -0.0286047 0
0.131667 -0.0286047 0
0.128333 -0.0286047 0
0.125 -0.0286047 0
0.121667 -0.0286047 0
0.118333 -0.0286047 0
0.115 -0.0286047 0
0.111667 -0.0286047 0
0.108333 -0.0286047 0
0.105 -0.0286047 0
0.101667 -0.0286047 0
0.0983333 -0.0286047 0
0.095 -0.0286047 0
0.0916667 -0.0286047 0
0.0883333 -0.0286047 0
0.085 -0.0286047 0
0.0816667 -0.0286047 0
0.0783333 -0.0286047 0
0.075 -0.0286047 0
0.0716667 -0.0286047 0
0.0683333 -0.0286047 0
0.065 -0.0286047 0
0.0616667 -0.0286047 0
0.0583333 -0.0286047 0
0.055 -0.0286047 0
0.0516667 -0.0286047 0
0.0483333 -0.0286047 0
0.045 -0.0286047 0
0.0416667 -0.0286047 0
0.0383333 -0.0286047 0
0.136667 -0.0314915 0
0.133333 -0.0314915 0
0.13 -0.0314915 0
0.126667 -0.0314915 0
0.123333 -0.0314915 0
0.12 -0.0314915 0
0.116667 -0.0314915 0
0.113333 -0.0314915 0
0.11 -0.0314915 0
0.106667 -0.0314915 0
0.103333 -0.0314915 0
0.1 -0.0314915 0
0.0966667 -0.0314915 0
0.0933333 -0.0314915 0
0.09 -0.0314915 0
0.0866667 -0.0314915 0
0.0833333 -0.0314915 0
0.08 -0.0314915 0
0.0766667 -0.0314915 0
0.0733333 -0.0314915 0
0.07 -0.0314915 0
0.0666667 -0.0314915 0
0.0633333 -0.0314915 0
0.06 -0.0314915 0
0.0566667 -0.0314915 0
0.0533333 -0.0314915 0
0.05 -0.0314915 0
0.0466667 -0.0314915 0
0.0433333 -0.0314915 0
0.04 -0.0314915 0
0.0366667 -0.0314915 0
0.135 -0.0343782 0
0.131667 -0.0343782 0
0.128333 -0.0343782 0
0.125 -0.0343782 0
0.121667 -0.0343782 0
0.118333 -0.0343782 0
0.115 -0.0343782 0
0.111667 -0.0343782 0
0.108333 -0.0343782 0
0.105 -0.0343782 0
0.101667 -0.0343782 0
0.0983333 -0.0343782 0
0.095 -0.0343782 0
0.0916667 -0.0343782 0
0.0883333 -0.0343782 0
0.085 -0.0343782 0
0.0816667 -0.0343782 0
0.0783333 -0.0343782 0
0.075 -0.0343782 0
0.0716667 -0.0343782 0
0.0683333 -0.0343782 0
0.065 -0.0343782 0
0.0616667 -0.0343782 0
0.0583333 -0.0343782 0
0.055 -0.0343782 0
0.0516667 -0.0343782 0
0.0483333 -0.0343782 0
0.045 -0.0343782 0
0.0416667 -0.0343782 0
0.0383333 -0.0343782 0
0.035 -0.0343782 0
0.133333 -0.037265 0
0.13 -0.037265 0
0.126667 -0.037265 0
0.123333 -0.037265 0
0.12 -0.037265 0
0.116667 -0.037265 0
0.113333 -0.037265 0
0.11 -0.037265 0
0.106667 -0.037265 0
0.103333 -0.037265 0
0.1 -0.037265 0
0.0966667 -0.037265 0
0.0933333 -0.037265 0
0.09 -0.037265 0
0.0866667 -0.037265 0
0.0833333 -0.037265 0
0.08 -0.037265 0
0.0766667 -0.037265 0
0.0733333 -0.037265 0
0.07 -0.037265 0
0.0666667 -0.037265 0
0.0633333 -0.037265 0
0.06 -0.037265 0
0.0566667 -0.037265 0
0.0533333 -0.037265 0
0.05 -0.037265 0
0.0466667 -0.037265 0
0.0433333 -0.037265 0
0.04 -0.037265 0
0.0366667 -0.037265 0
0.0333333 -0.037265 0
0.131667 -0.0401517 0
0.128333 -0.0401517 0
0.125 -0.0401517 0
0.121667 -0.0401517 0
0.118333 -0.0401517 0
0.115 -0.0401517 0
0.111667 -0.0401517 0
0.108333 -0.0401517 0
0.105 -0.0401517 0
0.101667 -0.0401517 0
0.0983333 -0.0401517 0
0.095 -0.0401517 0
0.0916667 -0.0401517 0
0.0883333 -0.0401517 0
0.085 -0.0401517 0
0.0816667 -0.0401517 0
0.0783333 -0.0401517 0
0.075 -0.0401517 0
0.0716667 -0.0401517 0
0.0683333 -0.0401517 0
0.065 -0.0401517 0
0.0616667 -0.0401517 0
0.0583333 -0.0401517 0
0.055 -0.0401517 0
0.0516667 -0.0401517 0
0.0483333 -0.0401517 0
0.045 -0.0401517 0
0.0416667 -0.0401517 0
0.0383333 -0.0401517 0
0.035 -0.0401517 0
0.0316667 -0.0401517 0
0.13 -0.0430385 0
0.126667 -0.0430385 0
0.123333 -0.0430385 0
0.12 -0.0430385 0
0.116667 -0.0430385 0
0.113333 -0.0430385 0
0.11 -0.0430385 0
0.106667 -0.0430385 0
0.103333 -0.0430385 0
0.1 -0.0430385 0
0.0966667 -0.0430385 0
0.0933333 -0.0430385 0
0.09 -0.0430385 0
0.0866667 -0.0430385 0
0.0833333 -0.0430385 0
0.08 -0.0430385 0
0.0766667 -0.0430385 0
0.0733333 -0.0430385 0
0.07 -0.0430385 0
0.0666667 -0.0430385 0
0.0633333 -0.0430385 0
0.06 -0.0430385 0
0.0566667 -0.0430385 0
0.0533333 -0.0430385 0
0.05 -0.0430385 0
0.0466667 -0.0430385 0
0.0433333 -0.0430385 0
0.04 -0.0430385 0
0.0366667 -0.0430385 0
0.0333333 -0.0430385 0
0.03 -0.0430385 0
0.128333 -0.0459252 0
0.125 -0.0459252 0
0.121667 -0.0459252 0
0.118333 -0.0459252 0
0.115 -0.0459252 0
0.111667 -0.0459252 0
0.108333 -0.0459252 0
0.105 -0.0459252 0
0.101667 -0.0459252 0
0.0983333 -0.0459252 0
0.095 -0.0459252 0
0.0916667 -0.0459252 0
0.0883333 -0.0459252 0
0.085 -0.0459252 0
0.0816667 -0.0459252 0
0.0783333 -0.0459252 0
0.075 -0.0459252 0
0.0716667 -0.0459252 0
0.0683333 -0.0459252 0
0.065 -0.0459252 0
0.0616667 -0.0459252 0
0.0583333 -0.0459252 0
0.055 -0.0459252 0
0.0516667 -0.0459252 0
0.0483333 -0.0459252 0
0.045 -0.0459252 0
0.0416667 -0.0459252 0
0.0383333 -0.0459252 0
0.035 -0.0459252 0
0.0316667 -0.0459252 0
0.0283333 -0.0459252 0
0.126667 -0.048812 0
0.123333 -0.048812 0
0.12 -0.048812 0
0.116667 -0.048812 0
0.113333 -0.048812 0
0.11 -0.048812 0
0.106667 -0.048812 0
0.103333 -0.048812 0
0.1 -0.048812 0
0.0966667 -0.048812 0
0.0933333 -0.048812 0
0.09 -0.048812 0
0.0866667 -0.048812 0
0.0833333 -0.048812 0
0.08 -0.048812 0
0.0766667 -0.048812 0
0.0733333 -0.048812 0
0.07 -0.048812 0
0.0666667 -0.048812 0
0.0633333 -0.048812 0
0.06 -0.048812 0
0.0566667 -0.048812 0
0.0533333 -0.048812 0
0.05 -0.048812 0
0.0466667 -0.048812 0
0.0433333 -0.048812 0
0.04 -0.048812 0
0.0366667 -0.048812 0
0.0333333 -0.048812 0
0.03 -0.048812 0
0.0266667 -0.048812 0
0.125 -0.0516987 0
0.121667 -0.0516987 0
0.118333 -0.0516987 0
0.115 -0.0516987 0
0.111667 -0.0516987 0
0.108333 -0.0516987 0
[...]
POINT_DATA 961
SCALARS Temp float 1
LOOKUP_TABLE default
529.198
485.79
446.452
411.857
382.082
356.99
336.283
319.553
306.317
296.065
288.291
282.519
278.325
275.346
273.285
271.908
271.043
270.576
270.443
270.633
271.186
272.195
273.807
276.229
279.73
284.633
291.315
300.192
311.699
326.284
344.564
485.79
442.633
404.343
371.024
342.628
318.927
299.556
284.052
271.901
262.576
255.57
250.416
246.707
244.101
242.323
241.161
240.468
240.149
240.167
240.532
241.313
242.629
244.663
247.657
251.915
257.799
265.714
276.098
289.4
306.063
326.284
446.452
404.343
367.299
335.345
308.334
285.964
267.816
253.394
242.169
233.612
227.223
222.552
219.214
216.887
215.318
214.319
213.76
213.57
213.729
214.273
215.293
216.939
219.422
223.017
228.059
234.936
244.076
255.924
270.913
289.4
311.699
411.857
371.024
335.345
304.773
279.089
257.939
240.872
227.375
216.915
208.974
203.067
198.766
195.703
193.582
192.167
191.291
190.842
190.766
191.064
191.791
193.062
195.052
198
202.205
208.03
215.88
226.191
239.404
255.924
276.098
300.192
382.082
342.628
308.334
279.089
254.624
234.555
218.411
205.678
195.834
188.374
182.834
178.807
175.946
173.973
172.673
171.893
171.538
171.569
172.004
172.919
174.447
176.786
180.198
185.004
191.583
200.351
211.745
226.191
244.076
265.714
291.315
356.99
318.928
285.964
257.939
234.555
215.408
200.029
187.911
178.547
171.453
166.186
162.357
159.642
157.776
156.562
155.859
155.587
155.72
156.292
157.395
159.18
161.863
165.725
171.102
178.383
187.99
200.351
215.88
234.936
257.799
284.633
336.283
299.556
267.816
240.872
218.411
200.029
185.263
173.626
164.627
157.804
152.734
149.048
146.436
144.649
143.5
142.863
142.666
142.898
143.605
144.891
146.925
149.937
154.22
160.122
168.037
178.383
191.583
208.03
228.059
251.915
279.73
319.553
284.052
253.394
227.375
205.678
187.911
173.626
162.353
153.625
146.999
142.07
138.484
135.944
134.215
133.119
132.538
132.412
132.739
133.575
135.037
137.305
140.621
145.286
151.655
160.122
171.102
185.004
202.205
223.017
247.657
276.229
306.317
271.901
242.169
216.915
195.834
178.547
164.627
153.625
145.094
138.608
133.777
130.261
127.774
126.089
125.037
124.507
124.446
124.862
125.819
127.445
129.926
133.513
138.514
145.286
154.22
165.725
180.198
198
219.422
244.663
273.807
296.066
262.576
233.612
208.974
188.374
171.453
157.804
146.999
138.608
132.219
127.457
123.99
121.543
119.893
118.878
118.394
118.395
118.893
119.962
121.734
124.404
128.227
133.513
140.621
149.937
161.863
176.786
195.052
216.939
242.629
272.195
288.291
255.569
227.222
203.067
182.834
166.186
152.734
142.07
133.777
127.457
122.743
119.313
116.896
115.276
114.295
113.853
113.91
114.483
115.651
117.551
120.382
124.404
129.926
137.305
146.925
159.18
174.447
193.062
215.293
241.313
271.186
282.519
250.416
222.552
198.766
178.807
162.357
149.048
138.484
130.261
123.99
119.313
115.913
113.521
111.928
110.977
110.575
110.682
111.322
112.576
114.584
117.551
121.734
127.445
135.037
144.891
157.395
172.919
191.791
214.273
240.532
270.633
278.325
246.707
219.214
195.703
175.946
159.642
146.436
135.944
127.774
121.543
116.896
113.521
111.154
109.586
108.666
108.299
108.453
109.15
110.477
112.576
115.651
119.962
125.819
133.575
143.605
156.292
172.004
191.064
213.729
240.167
270.443
275.346
244.101
216.887
193.582
173.973
157.776
144.649
134.215
126.089
119.893
115.276
111.928
109.586
108.045
107.154
106.822
107.016
107.763
109.15
111.322
114.483
118.893
124.862
132.739
142.898
155.72
171.569
190.766
213.57
240.149
270.576
273.285
242.323
215.318
192.167
172.673
156.562
143.5
133.119
125.037
118.878
114.295
110.977
108.666
107.154
106.293
105.994
106.226
107.016
108.453
110.682
113.91
118.395
124.446
132.412
142.666
155.587
171.538
190.842
213.76
240.468
271.043
271.908
241.161
214.319
191.291
171.893
155.859
142.863
132.538
124.507
118.394
113.853
110.575
108.299
106.822
105.994
105.728
105.994
106.822
108.299
110.575
113.853
118.394
124.507
132.538
142.863
155.859
171.893
191.291
214.319
241.161
271.908
271.043
240.468
213.76
190.842
171.538
155.587
142.666
132.412
124.446
118.395
113.91
110.682
108.453
107.016
106.226
105.994
106.293
107.154
108.666
110.977
114.295
118.878
125.037
133.119
143.5
156.562
172.673
192.167
215.318
242.323
273.285
270.576
240.149
213.57
190.766
171.569
155.72
142.898
132.739
124.862
118.893
114.483
111.322
109.15
107.763
107.016
106.822
107.154
108.045
109.586
111.928
115.276
119.893
126.089
134.215
144.649
157.776
173.973
193.582
216.887
244.101
275.346
270.443
240.167
213.729
191.064
172.004
156.292
143.605
133.575
125.819
119.962
115.651
112.576
110.477
109.15
108.453
108.299
108.666
109.586
111.154
113.521
116.896
121.543
127.774
135.944
146.436
159.642
175.946
195.703
219.214
246.707
278.325
270.633
240.532
214.273
191.791
172.919
157.395
144.891
135.037
127.445
121.734
117.551
114.584
112.576
111.322
110.682
110.575
110.977
111.928
113.521
115.913
119.313
123.99
130.261
138.484
149.048
162.357
178.807
198.766
222.552
250.416
282.519
271.186
241.313
215.293
193.062
174.447
159.18
146.925
137.305
129.926
124.404
120.382
117.551
115.651
114.483
113.91
113.853
114.295
115.276
116.896
119.313
122.743
127.457
133.777
142.07
152.734
166.186
182.834
203.067
227.223
255.57
288.291
272.195
242.629
216.939
195.052
176.786
161.863
149.937
140.621
133.513
128.227
124.404
121.734
119.962
118.893
118.395
118.394
118.878
119.893
121.543
123.99
127.457
132.219
138.608
146.999
157.804
171.453
188.374
208.974
233.612
262.576
296.065
273.807
244.663
219.422
198
180.198
165.725
154.22
145.286
138.514
133.513
129.926
127.445
125.819
124.862
124.446
124.507
125.037
126.089
127.774
130.261
133.777
138.608
145.094
153.625
164.627
178.547
195.834
216.915
242.169
271.901
306.317
276.229
247.657
223.017
202.205
185.005
171.102
160.122
151.655
145.286
140.621
137.305
135.037
133.575
132.739
132.412
132.538
133.119
134.215
135.944
138.484
142.07
146.999
153.625
162.353
173.626
187.911
205.678
227.375
253.394
284.052
319.553
279.73
251.915
228.059
208.03
191.583
178.383
168.037
160.122
154.22
149.937
146.925
144.891
143.605
142.898
142.666
142.863
143.5
144.649
146.436
149.048
152.734
157.804
164.627
173.626
185.263
200.029
218.411
240.872
267.816
299.556
336.283
284.633
257.799
234.936
215.88
200.351
187.99
178.383
171.102
165.725
161.863
159.18
157.395
156.292
155.72
155.587
155.859
156.562
157.776
159.642
162.357
166.186
171.453
178.547
187.911
200.029
215.408
234.555
257.939
285.964
318.927
356.99
291.315
265.714
244.076
226.191
211.745
200.351
191.583
185.004
180.198
176.786
174.447
172.919
172.004
171.569
171.538
171.893
172.673
173.973
175.946
178.807
182.834
188.374
195.834
205.678
218.411
234.555
254.624
279.089
308.334
342.628
382.082
300.192
276.098
255.924
239.404
226.191
215.88
208.03
202.205
198
195.052
193.062
191.791
191.064
190.766
190.842
191.291
192.167
193.582
195.703
198.766
203.067
208.974
216.916
227.375
240.872
257.939
279.089
304.773
335.345
371.024
411.857
311.699
289.4
270.913
255.924
244.076
234.936
228.059
223.017
219.422
216.939
215.293
214.273
213.729
213.57
213.76
214.319
215.318
216.887
219.214
222.552
227.223
233.612
242.169
253.394
267.816
285.964
308.334
335.345
367.299
404.343
446.452
326.284
306.063
289.4
276.098
265.714
257.799
251.915
247.657
244.663
242.629
241.313
240.532
240.167
240.15
240.468
241.161
242.323
244.101
246.707
250.416
255.57
262.576
271.901
284.052
299.556
318.928
342.628
371.024
404.343
442.633
485.789
344.564
326.284
311.699
300.192
291.315
284.633
279.73
276.229
273.807
272.195
271.186
270.633
270.443
270.576
271.043
271.908
273.285
275.346
278.325
282.519
288.291
296.065
306.317
319.553
336.283
356.99
382.082
411.857
446.452
485.789
529.197
