# vtk DataFile Version 2.0
Unstructured Grid Example
ASCII
DATASET UNSTRUCTURED_GRID

POINTS 961 float
0.15 -0.00839746 0
0.146667 -0.00839746 0
0.143333 -0.00839746 0
0.14 -0.00839746 0
0.136667 -0.00839746 0
0.133333 -0.00839746 0
0.13 -0.00839746 0
0.126667 -0.00839746 0
0.123333 -0.00839746 0
0.12 -0.00839746 0
0.116667 -0.00839746 0
0.113333 -0.00839746 0
0.11 -0.00839746 0
0.106667 -0.00839746 0
0.103333 -0.00839746 0
0.1 -0.00839746 0
0.0966667 -0.00839746 0
0.0933333 -0.00839746 0
0.09 -0.00839746 0
0.0866667 -0.00839746 0
0.0833333 -0.00839746 0
0.08 -0.00839746 0
0.0766667 -0.00839746 0
0.0733333 -0.00839746 0
0.07 -0.00839746 0
0.0666667 -0.00839746 0
0.0633333 -0.00839746 0
0.06 -0.00839746 0
0.0566667 -0.00839746 0
0.0533333 -0.00839746 0
0.05 -0.00839746 0
0.148333 -0.0112842 0
0.145 -0.0112842 0
0.141667 -0.0112842 0
0.138333 -0.0112842 0
0.135 -0.0112842 0
0.131667 -0.0112842 0
0.128333 -0.0112842 0
0.125 -0.0112842 0
0.121667 -0.0112842 0
0.118333 -0.0112842 0
0.115 -0.0112842 0
0.111667 -0.0112842 0
0.108333 -0.0112842 0
0.105 -0.0112842 0
0.101667 -0.0112842 0
0.0983333 -0.0112842 0
0.095 -0.0112842 0
0.0916667 -0.0112842 0
0.0883333 -0.0112842 0
0.085 -0.0112842 0
0.0816667 -0.0112842 0
0.0783333 -0.0112842 0
0.075 -0.0112842 0
0.0716667 -0.0112842 0
0.0683333 -0.0112842 0
0.065 -0.0112842 0
0.0616667 -0.0112842 0
0.0583333 -0.0112842 0
0.055 -0.0112842 0
0.0516667 -0.0112842 0
0.0483333 -0.0112842 0
0.146667 -0.014171 0
0.143333 -0.014171 0
0.14 -0.014171 0
0.136667 -0.014171 0
0.133333 -0.014171 0
0.13 -0.014171 0
0.126667 -0.014171 0
0.123333 -0.014171 0
0.12 -0.014171 0
0.116667 -0.014171 0
0.113333 -0.014171 0
0.11 -0.014171 0
0.106667 -0.014171 0
0.103333 -0.014171 0
0.1 -0.014171 0
0.0966667 -0.014171 0
0.0933333 -0.014171 0
0.09 -0.014171 0
0.0866667 -0.014171 0
0.0833333 -0.014171 0
0.08 -0.014171 0
0.0766667 -0.014171 0
0.0733333 -0.014171 0
0.07 -0.014171 0
0.0666667 -0.014171 0
0.0633333 -0.014171 0
0.06 -0.014171 0
0.0566667 -0.014171 0
0.0533333 -0.014171 0
0.05 -0.014171 0
0.0466667 -0.014171 0
0.145 -0.0170577 0
0.141667 -0.0170577 0
0.138333 -0.0170577 0
0.135 -0.0170577 0
0.131667 -0.0170577 0
0.128333 -0.0170577 0
0.125 -0.0170577 0
0.121667 -0.0170577 0
0.118333 -0.0170577 0
0.115 -0.0170577 0
0.111667 -0.0170577 0
0.108333 -0.0170577 0
0.105 -0.0170577 0
0.101667 -0.0170577 0
0.0983333 -0.0170577 0
0.095 -0.0170577 0
0.0916667 -0.0170577 0
0.0883333 -0.0170577 0
0.085 -0.0170577 0
0.0816667 -0.0170577 0
0.0783333 -0.0170577 0
0.075 -0.0170577 0
0.0716667 -0.0170577 0
0.0683333 -0.0170577 0
0.065 -0.0170577 0
0.0616667 -0.0170577 0
0.0583333 -0.0170577 0
0.055 -0.0170577 0
0.0516667 -0.0170577 0
0.0483333 -0.0170577 0
0.045 -0.0170577 0
0.143333 -0.0199445 0
0.14 -0.0199445 0
0.136667 -0.0199445 0
0.133333 -0.0199445 0
0.13 -0.0199445 0
0.126667 -0.0199445 0
0.123333 -0.0199445 0
0.12 -0.0199445 0
0.116667 -0.0199445 0
0.113333 -0.0199445 0
0.11 -0.0199445 0
0.106667 -0.0199445 0
0.103333 -0.0199445 0
0.1 -0.0199445 0
0.0966667 -0.0199445 0
0.0933333 -0.0199445 0
0.09 -0.0199445 0
0.0866667 -0.0199445 0
0.0833333 -0.0199445 0
0.08 -0.0199445 0
0.0766667 -0.0199445 0
0.0733333 -0.0199445 0
0.07 -0.0199445 0
0.0666667 -0.0199445 0
0.0633333 -0.0199445 0
0.06 -0.0199445 0
0.0566667 -0.0199445 0
0.0533333 -0.0199445 0
0.05 -0.0199445 0
0.0466667 -0.0199445 0
0.0433333 -0.0199445 0
0.141667 -0.0228312 0
0.138333 -0.0228312 0
0.135 -0.0228312 0
0.131667 -0.0228312 0
0.128333 -0.0228312 0
0.125 -0.0228312 0
0.121667 -0.0228312 0
0.118333 -0.0228312 0
0.115 -0.0228312 0
0.111667 -0.0228312 0
0.108333 -0.0228312 0
0.105 -0.0228312 0
0.101667 -0.0228312 0
0.0983333 -0.0228312 0
0.095 -0.0228312 0
0.0916667 -0.0228312 0
0.0883333 -0.0228312 0
0.085 -0.0228312 0
0.0816667 -0.0228312 0
0.0783333 -0.0228312 0
0.075 -0.0228312 0
0.0716667 -0.0228312 0
0.0683333 -0.0228312 0
0.065 -0.0228312 0
0.0616667 -0.0228312 0
0.0583333 -0.0228312 0
0.055 -0.0228312 0
0.0516667 -0.0228312 0
0.0483333 -0.0228312 0
0.045 -0.0228312 0
0.0416667 -0.0228312 0
0.14 -0.025718 0
0.136667 -0.025718 0
0.133333 -0.025718 0
0.13 -0.025718 0
0.126667 -0.025718 0
0.123333 -0.025718 0
0.12 -0.025718 0
0.116667 -0.025718 0
0.113333 -0.025718 0
0.11 -0.025718 0
0.106667 -0.025718 0
0.103333 -0.025718 0
0.1 -0.025718 0
0.0966667 -0.025718 0
0.0933333 -0.025718 0
0.09 -0.025718 0
0.0866667 -0.025718 0
0.0833333 -0.025718 0
0.08 -0.025718 0
0.0766667 -0.025718 0
0.0733333 -0.025718 0
0.07 -0.025718 0
0.0666667 -0.025718 0
0.0633333 -0.025718 0
0.06 -0.025718 0
0.0566667 -0.025718 0
0.0533333 -0.025718 0
0.05 -0.025718 0
0.0466667 -0.025718 0
0.0433333 -0.025718 0
0.04 -0.025718 0
0.138333 -0.0286047 0
0.135 -0.0286047 0
0.131667 -0.0286047 0
0.128333 -0.0286047 0
0.125 -0.0286047 0
0.121667 -0.0286047 0
0.118333 -0.0286047 0
0.115 -0.0286047 0
0.111667 -0.0286047 0
0.108333 -0.0286047 0
0.105 -0.0286047 0
0.101667 -0.0286047 0
0.0983333 -0.0286047 0
0.095 -0.0286047 0
0.0916667 -0.0286047 0
0.0883333 -0.0286047 0
0.085 -0.0286047 0
0.0816667 -0.0286047 0
0.0783333 -0.0286047 0
0.075 -0.0286047 0
0.0716667 -0.0286047 0
0.0683333 -0.0286047 0
0.065 -0.0286047 0
0.0616667 -0.0286047 0
0.0583333 -0.0286047 0
0.055 -0.0286047 0
0.0516667 -0.0286047 0
0.0483333 -0.0286047 0
0.045 -0.0286047 0
0.0416667 -0.0286047 0
0.0383333 -0.0286047 0
0.136667 -0.0314915 0
0.133333 -0.0314915 0
0.13 -0.0314915 0
0.126667 -0.0314915 0
0.123333 -0.0314915 0
0.12 -0.0314915 0
0.116667 -0.0314915 0
0.113333 -0.0314915 0
0.11 -0.0314915 0
0.106667 -0.0314915 0
0.103333 -0.0314915 0
0.1 -0.0314915 0
0.0966667 -0.0314915 0
0.0933333 -0.0314915 0
0.09 -0.0314915 0
0.0866667 -0.0314915 0
0.0833333 -0.0314915 0
0.08 -0.0314915 0
0.0766667 -0.0314915 0
0.0733333 -0.0314915 0
0.07 -0.0314915 0
0.0666667 -0.0314915 0
0.0633333 -0.0314915 0
0.06 -0.0314915 0
0.0566667 -0.0314915 0
0.0533333 -0.0314915 0
0.05 -0.0314915 0
0.0466667 -0.0314915 0
0.0433333 -0.0314915 0
0.04 -0.0314915 0
0.0366667 -0.0314915 0
0.135 -0.0343782 0
0.131667 -0.0343782 0
0.128333 -0.0343782 0
0.125 -0.0343782 0
0.121667 -0.0343782 0
0.118333 -0.0343782 0
0.115 -0.0343782 0
0.111667 -0.0343782 0
0.108333 -0.0343782 0
0.105 -0.0343782 0
0.101667 -0.0343782 0
0.0983333 -0.0343782 0
0.095 -0.0343782 0
0.0916667 -0.0343782 0
0.0883333 -0.0343782 0
0.085 -0.0343782 0
0.0816667 -0.0343782 0
0.0783333 -0.0343782 0
0.075 -0.0343782 0
0.0716667 -0.0343782 0
0.0683333 -0.0343782 0
0.065 -0.0343782 0
0.0616667 -0.0343782 0
0.0583333 -0.0343782 0
0.055 -0.0343782 0
0.0516667 -0.0343782 0
0.0483333 -0.0343782 0
0.045 -0.0343782 0
0.0416667 -0.0343782 0
0.0383333 -0.0343782 0
0.035 -0.0343782 0
0.133333 -0.037265 0
0.13 -0.037265 0
0.126667 -0.037265 0
0.123333 -0.037265 0
0.12 -0.037265 0
0.116667 -0.037265 0
0.113333 -0.037265 0
0.11 -0.037265 0
0.106667 -0.037265 0
0.103333 -0.037265 0
0.1 -0.037265 0
0.0966667 -0.037265 0
0.0933333 -0.037265 0
0.09 -0.037265 0
0.0866667 -0.037265 0
0.0833333 -0.037265 0
0.08 -0.037265 0
0.0766667 -0.037265 0
0.0733333 -0.037265 0
0.07 -0.037265 0
0.0666667 -0.037265 0
0.0633333 -0.037265 0
0.06 -0.037265 0
0.0566667 -0.037265 0
0.0533333 -0.037265 0
0.05 -0.037265 0
0.0466667 -0.037265 0
0.0433333 -0.037265 0
0.04 -0.037265 0
0.0366667 -0.037265 0
0.0333333 -0.037265 0
0.131667 -0.0401517 0
0.128333 -0.0401517 0
0.125 -0.0401517 0
0.121667 -0.0401517 0
0.118333 -0.0401517 0
0.115 -0.0401517 0
0.111667 -0.0401517 0
0.108333 -0.0401517 0
0.105 -0.0401517 0
0.101667 -0.0401517 0
0.0983333 -0.0401517 0
0.095 -0.0401517 0
0.0916667 -0.0401517 0
0.0883333 -0.0401517 0
0.085 -0.0401517 0
0.0816667 -0.0401517 0
0.0783333 -0.0401517 0
0.075 -0.0401517 0
0.0716667 -0.0401517 0
0.0683333 -0.0401517 0
0.065 -0.0401517 0
0.0616667 -0.0401517 0
0.0583333 -0.0401517 0
0.055 -0.0401517 0
0.0516667 -0.0401517 0
0.0483333 -0.0401517 0
0.045 -0.0401517 0
0.0416667 -0.0401517 0
0.0383333 -0.0401517 0
0.035 -0.0401517 0
0.0316667 -0.0401517 0
0.13 -0.0430385 0
0.126667 -0.0430385 0
0.123333 -0.0430385 0
0.12 -0.0430385 0
0.116667 -0.0430385 0
0.113333 -0.0430385 0
0.11 -0.0430385 0
0.106667 -0.0430385 0
0.103333 -0.0430385 0
0.1 -0.0430385 0
0.0966667 -0.0430385 0
0.0933333 -0.0430385 0
0.09 -0.0430385 0
0.0866667 -0.0430385 0
0.0833333 -0.0430385 0
0.08 -0.0430385 0
0.0766667 -0.0430385 0
0.0733333 -0.0430385 0
0.07 -0.0430385 0
0.0666667 -0.0430385 0
0.0633333 -0.0430385 0
0.06 -0.0430385 0
0.0566667 -0.0430385 0
0.0533333 -0.0430385 0
0.05 -0.0430385 0
0.0466667 -0.0430385 0
0.0433333 -0.0430385 0
0.04 -0.0430385 0
0.0366667 -0.0430385 0
0.0333333 -0.0430385 0
0.03 -0.0430385 0
0.128333 -0.0459252 0
0.125 -0.0459252 0
0.121667 -0.0459252 0
0.118333 -0.0459252 0
0.115 -0.0459252 0
0.111667 -0.0459252 0
0.108333 -0.0459252 0
0.105 -0.0459252 0
0.101667 -0.0459252 0
0.0983333 -0.0459252 0
0.095 -0.0459252 0
0.0916667 -0.0459252 0
0.0883333 -0.0459252 0
0.085 -0.0459252 0
0.0816667 -0.0459252 0
0.0783333 -0.0459252 0
0.075 -0.0459252 0
0.0716667 -0.0459252 0
0.0683333 -0.0459252 0
0.065 -0.0459252 0
0.0616667 -0.0459252 0
0.0583333 -0.0459252 0
0.055 -0.0459252 0
0.0516667 -0.0459252 0
0.0483333 -0.0459252 0
0.045 -0.0459252 0
0.0416667 -0.0459252 0
0.0383333 -0.0459252 0
0.035 -0.0459252 0
0.0316667 -0.0459252 0
0.0283333 -0.0459252 0
0.126667 -0.048812 0
0.123333 -0.048812 0
0.12 -0.048812 0
0.116667 -0.048812 0
0.113333 -0.048812 0
0.11 -0.048812 0
0.106667 -0.048812 0
0.103333 -0.048812 0
0.1 -0.048812 0
0.0966667 -0.048812 0
0.0933333 -0.048812 0
0.09 -0.048812 0
0.0866667 -0.048812 0
0.0833333 -0.048812 0
0.08 -0.048812 0
0.0766667 -0.048812 0
0.0733333 -0.048812 0
0.07 -0.048812 0
0.0666667 -0.048812 0
0.0633333 -0.048812 0
0.06 -0.048812 0
0.0566667 -0.048812 0
0.0533333 -0.048812 0
0.05 -0.048812 0
0.0466667 -0.048812 0
0.0433333 -0.048812 0
0.04 -0.048812 0
0.0366667 -0.048812 0
0.0333333 -0.048812 0
0.03 -0.048812 0
0.0266667 -0.048812 0
0.125 -0.0516987 0
0.121667 -0.0516987 0
0.118333 -0.0516987 0
0.115 -0.0516987 0
0.111667 -0.0516987 0
0.108333 -0.0516987 0
[...]
POINT_DATA 961
SCALARS Temp float 1
LOOKUP_TABLE default
575.35
534.405
496.588
462.473
432.204
405.778
383.076
363.886
347.927
334.87
324.364
316.051
309.591
304.668
301.006
298.372
296.581
295.498
295.04
295.178
295.931
297.372
299.624
302.856
307.283
313.158
320.765
330.408
342.4
357.064
374.871
534.405
493.396
456.153
422.831
393.493
368.072
346.396
328.21
313.198
301.007
291.271
283.628
277.739
273.297
270.037
267.743
266.248
265.44
265.257
265.695
266.798
268.668
271.453
275.351
280.603
287.485
296.3
307.364
321
337.524
357.064
496.588
456.153
419.681
387.28
358.941
334.543
313.869
296.628
282.48
271.058
261.99
254.915
249.502
245.455
242.524
240.51
239.267
238.702
238.777
239.508
240.967
243.276
246.61
251.192
257.282
265.175
275.184
287.629
302.819
321
342.4
462.473
422.831
387.28
355.876
328.558
305.159
285.428
269.05
255.67
244.914
236.411
229.808
224.783
221.056
218.393
216.613
215.587
215.242
215.562
216.583
218.399
221.154
225.044
230.311
237.232
246.111
257.267
271.012
287.629
307.364
330.408
432.204
393.493
358.941
328.558
302.238
279.782
260.913
245.302
232.586
222.393
214.359
208.14
203.428
199.958
197.513
195.928
195.092
194.952
195.506
196.814
198.985
202.185
206.625
212.563
220.285
230.103
242.33
257.267
275.184
296.3
320.765
405.778
368.072
334.543
305.159
279.782
258.187
240.084
225.136
212.982
203.256
195.602
189.691
185.229
181.965
179.698
178.279
177.614
177.663
178.445
180.032
182.553
186.186
191.159
197.736
206.213
216.9
230.103
246.111
265.175
287.485
313.158
383.076
346.396
313.869
285.428
260.913
240.084
222.645
208.258
196.569
187.221
179.872
174.204
169.939
166.84
164.721
163.445
162.934
163.162
164.162
166.019
168.876
172.924
178.399
185.573
194.742
206.213
220.285
237.232
257.282
280.603
307.283
363.886
328.21
296.628
269.05
245.302
225.136
208.258
194.336
183.024
173.979
166.869
161.393
157.284
154.318
152.322
151.173
150.803
151.2
152.406
154.521
157.696
162.131
168.069
175.784
185.573
197.736
212.563
230.311
251.192
275.351
302.856
347.927
313.198
282.48
255.67
232.586
212.982
196.569
183.024
172.014
163.207
156.285
150.958
146.973
144.117
142.227
141.192
140.952
141.506
142.907
145.262
148.73
153.518
159.872
168.069
178.399
191.159
206.625
225.044
246.61
271.453
299.624
334.87
301.007
271.058
244.914
222.393
203.256
187.221
173.979
163.207
154.586
147.811
142.603
138.718
135.955
134.158
133.225
133.105
133.805
135.386
137.96
141.694
146.798
153.518
162.131
172.924
186.186
202.185
221.154
243.276
268.668
297.372
324.364
291.271
261.99
236.411
214.359
195.602
179.872
166.869
156.285
147.811
141.153
136.041
132.24
129.557
127.844
127.005
126.997
127.831
129.575
132.347
136.316
141.694
148.73
157.696
168.876
182.553
198.985
218.399
240.967
266.798
295.931
316.051
283.628
254.915
229.808
208.14
189.691
174.204
161.393
150.958
142.603
136.041
131.011
127.284
124.674
123.038
122.286
122.381
123.338
125.228
128.174
132.347
137.96
145.262
154.521
166.019
180.032
196.814
216.583
239.508
265.695
295.178
309.591
277.739
249.502
224.783
203.428
185.229
169.939
157.284
146.973
138.718
132.24
127.284
123.627
121.086
119.524
118.854
119.043
120.111
122.13
125.228
129.575
135.386
142.907
152.406
164.162
178.445
195.506
215.562
238.777
265.257
295.04
304.668
273.297
245.455
221.056
199.958
181.965
166.84
154.318
144.117
135.955
129.557
124.674
121.086
118.614
117.124
116.533
116.81
117.977
120.111
123.338
127.831
133.805
141.506
151.2
163.162
177.663
194.952
215.242
238.702
265.44
295.498
301.006
270.037
242.524
218.393
197.513
179.698
164.721
152.322
142.227
134.158
127.844
123.038
119.524
117.124
115.708
115.194
115.553
116.81
119.043
122.381
126.997
133.105
140.952
150.803
162.934
177.614
195.092
215.587
239.267
266.248
296.581
298.372
267.743
240.51
216.613
195.928
178.279
163.445
151.173
141.192
133.225
127.005
122.286
118.854
116.533
115.194
114.756
115.194
116.533
118.854
122.286
127.005
133.225
141.192
151.173
163.445
178.279
195.928
216.613
240.51
267.743
298.372
296.581
266.248
239.267
215.587
195.092
177.614
162.934
150.803
140.952
133.105
126.997
122.381
119.043
116.81
115.553
115.194
115.708
117.124
119.524
123.038
127.844
134.158
142.227
152.322
164.721
179.698
197.513
218.393
242.524
270.037
301.006
295.498
265.44
238.702
215.242
194.952
177.663
163.162
151.2
141.506
133.805
127.831
123.338
120.111
117.977
116.81
116.533
117.124
118.614
121.086
124.674
129.557
135.955
144.117
154.318
166.84
181.965
199.958
221.056
245.455
273.297
304.668
295.04
265.257
238.777
215.562
195.506
178.445
164.162
152.406
142.907
135.386
129.575
125.228
122.13
120.111
119.043
118.854
119.524
121.086
123.627
127.284
132.24
138.718
146.973
157.284
169.939
185.229
203.428
224.783
249.502
277.739
309.591
295.178
265.695
239.508
216.583
196.814
180.032
166.019
154.521
145.262
137.96
132.347
128.174
125.228
123.338
122.381
122.286
123.038
124.674
127.284
131.011
136.041
142.603
150.958
161.393
174.204
189.691
208.14
229.808
254.915
283.628
316.051
295.931
266.798
240.967
218.399
198.985
182.553
168.876
157.696
148.73
141.694
136.316
132.347
129.575
127.831
126.997
127.005
127.844
129.557
132.24
136.041
141.153
147.811
156.285
166.869
179.872
195.602
214.359
236.411
261.99
291.271
324.364
297.372
268.668
243.276
221.154
202.185
186.186
172.924
162.131
153.518
146.798
141.694
137.96
135.386
133.805
133.105
133.225
134.158
135.955
138.718
142.603
147.811
154.586
163.207
173.979
187.221
203.256
222.393
244.914
271.058
301.007
334.87
299.624
271.453
246.61
225.044
206.625
191.159
178.399
168.069
159.872
153.518
148.73
145.262
142.907
141.506
140.952
141.192
142.227
144.117
146.973
150.958
156.285
163.207
172.014
183.024
196.569
212.982
232.586
255.67
282.48
313.198
347.927
302.856
275.351
251.192
230.311
212.563
197.736
185.573
175.784
168.069
162.131
157.696
154.521
152.406
151.2
150.803
151.173
152.322
154.318
157.284
161.393
166.869
173.979
183.024
194.336
208.258
225.136
245.302
269.05
296.628
328.21
363.886
307.283
280.603
257.282
237.232
220.285
206.213
194.742
185.573
178.399
172.924
168.876
166.019
164.162
163.162
162.934
163.445
164.721
166.84
169.939
174.204
179.872
187.221
196.569
208.258
222.645
240.084
260.913
285.428
313.869
346.396
383.076
313.158
287.485
265.175
246.111
230.103
216.9
206.213
197.736
191.159
186.186
182.553
180.032
178.445
177.663
177.614
178.279
179.698
181.965
185.229
189.691
195.602
203.256
212.982
225.136
240.084
258.187
279.782
305.159
334.543
368.072
405.778
320.765
296.3
275.184
257.267
242.33
230.103
220.285
212.563
206.625
202.185
198.985
196.814
195.506
194.952
195.092
195.928
197.513
199.958
203.428
208.14
214.359
222.393
232.586
245.302
260.913
279.782
302.238
328.558
358.941
393.493
432.204
330.408
307.364
287.629
271.012
257.267
246.111
237.232
230.311
225.044
221.154
218.399
216.583
215.562
215.242
215.587
216.613
218.393
221.056
224.783
229.808
236.411
244.914
255.67
269.05
285.428
305.159
328.558
355.876
387.28
422.831
462.473
342.4
321
302.819
287.629
275.184
265.175
257.282
251.192
246.61
243.276
240.967
239.508
238.777
238.702
239.267
240.51
242.524
245.455
249.502
254.915
261.99
271.058
282.48
296.628
313.869
334.543
358.941
387.28
419.681
456.153
496.588
357.064
337.524
321
307.364
296.3
287.485
280.603
275.351
271.453
268.668
266.798
265.695
265.257
265.44
266.248
267.743
270.037
273.297
277.739
283.628
291.271
301.007
313.198
328.21
346.396
368.072
393.493
422.831
456.153
493.396
534.405
374.871
357.064
342.4
330.408
320.765
313.158
307.283
302.856
299.624
297.372
295.931
295.178
295.04
295.498
296.581
298.372
301.006
304.668
309.591
316.051
324.364
334.87
347.927
363.886
383.076
405.778
432.204
462.473
496.588
534.405
575.349
