# vtk DataFile Version 2.0
Unstructured Grid Example
ASCII
DATASET UNSTRUCTURED_GRID

POINTS 961 float
0.15 -0.00839746 0
0.146667 -0.00839746 0
0.143333 -0.00839746 0
0.14 -0.00839746 0
0.136667 -0.00839746 0
0.133333 -0.00839746 0
0.13 -0.00839746 0
0.126667 -0.00839746 0
0.123333 -0.00839746 0
0.12 -0.00839746 0
0.116667 -0.00839746 0
0.113333 -0.00839746 0
0.11 -0.00839746 0
0.106667 -0.00839746 0
0.103333 -0.00839746 0
0.1 -0.00839746 0
0.0966667 -0.00839746 0
0.0933333 -0.00839746 0
0.09 -0.00839746 0
0.0866667 -0.00839746 0
0.0833333 -0.00839746 0
0.08 -0.00839746 0
0.0766667 -0.00839746 0
0.0733333 -0.00839746 0
0.07 -0.00839746 0
0.0666667 -0.00839746 0
0.0633333 -0.00839746 0
0.06 -0.00839746 0
0.0566667 -0.00839746 0
0.0533333 -0.00839746 0
0.05 -0.00839746 0
0.148333 -0.0112842 0
0.145 -0.0112842 0
0.141667 -0.0112842 0
0.138333 -0.0112842 0
0.135 -0.0112842 0
0.131667 -0.0112842 0
0.128333 -0.0112842 0
0.125 -0.0112842 0
0.121667 -0.0112842 0
0.118333 -0.0112842 0
0.115 -0.0112842 0
0.111667 -0.0112842 0
0.108333 -0.0112842 0
0.105 -0.0112842 0
0.101667 -0.0112842 0
0.0983333 -0.0112842 0
0.095 -0.0112842 0
0.0916667 -0.0112842 0
0.0883333 -0.0112842 0
0.085 -0.0112842 0
0.0816667 -0.0112842 0
0.0783333 -0.0112842 0
0.075 -0.0112842 0
0.0716667 -0.0112842 0
0.0683333 -0.0112842 0
0.065 -0.0112842 0
0.0616667 -0.0112842 0
0.0583333 -0.0112842 0
0.055 -0.0112842 0
0.0516667 -0.0112842 0
0.0483333 -0.0112842 0
0.146667 -0.014171 0
0.143333 -0.014171 0
0.14 -0.014171 0
0.136667 -0.014171 0
0.133333 -0.014171 0
0.13 -0.014171 0
0.126667 -0.014171 0
0.123333 -0.014171 0
0.12 -0.014171 0
0.116667 -0.014171 0
0.113333 -0.014171 0
0.11 -0.014171 0
0.106667 -0.014171 0
0.103333 -0.014171 0
0.1 -0.014171 0
0.0966667 -0.014171 0
0.0933333 -0.014171 0
0.09 -0.014171 0
0.0866667 -0.014171 0
0.0833333 -0.014171 0
0.08 -0.014171 0
0.0766667 -0.014171 0
0.0733333 -0.014171 0
0.07 -0.014171 0
0.0666667 -0.014171 0
0.0633333 -0.014171 0
0.06 -0.014171 0
0.0566667 -0.014171 0
0.0533333 -0.014171 0
0.05 -0.014171 0
0.0466667 -0.014171 0
0.145 -0.0170577 0
0.141667 -0.0170577 0
0.138333 -0.0170577 0
0.135 -0.0170577 0
0.131667 -0.0170577 0
0.128333 -0.0170577 0
0.125 -0.0170577 0
0.121667 -0.0170577 0
0.118333 -0.0170577 0
0.115 -0.0170577 0
0.111667 -0.0170577 0
0.108333 -0.0170577 0
0.105 -0.0170577 0
0.101667 -0.0170577 0
0.0983333 -0.0170577 0
0.095 -0.0170577 0
0.0916667 -0.0170577 0
0.0883333 -0.0170577 0
0.085 -0.0170577 0
0.0816667 -0.0170577 0
0.0783333 -0.0170577 0
0.075 -0.0170577 0
0.0716667 -0.0170577 0
0.0683333 -0.0170577 0
0.065 -0.0170577 0
0.0616667 -0.0170577 0
0.0583333 -0.0170577 0
0.055 -0.0170577 0
0.0516667 -0.0170577 0
0.0483333 -0.0170577 0
0.045 -0.0170577 0
0.143333 -0.0199445 0
0.14 -0.0199445 0
0.136667 -0.0199445 0
0.133333 -0.0199445 0
0.13 -0.0199445 0
0.126667 -0.0199445 0
0.123333 -0.0199445 0
0.12 -0.0199445 0
0.116667 -0.0199445 0
0.113333 -0.0199445 0
0.11 -0.0199445 0
0.106667 -0.0199445 0
0.103333 -0.0199445 0
0.1 -0.0199445 0
0.0966667 -0.0199445 0
0.0933333 -0.0199445 0
0.09 -0.0199445 0
0.0866667 -0.0199445 0
0.0833333 -0.0199445 0
0.08 -0.0199445 0
0.0766667 -0.0199445 0
0.0733333 -0.0199445 0
0.07 -0.0199445 0
0.0666667 -0.0199445 0
0.0633333 -0.0199445 0
0.06 -0.0199445 0
0.0566667 -0.0199445 0
0.0533333 -0.0199445 0
0.05 -0.0199445 0
0.0466667 -0.0199445 0
0.0433333 -0.0199445 0
0.141667 -0.0228312 0
0.138333 -0.0228312 0
0.135 -0.0228312 0
0.131667 -0.0228312 0
0.128333 -0.0228312 0
0.125 -0.0228312 0
0.121667 -0.0228312 0
0.118333 -0.0228312 0
0.115 -0.0228312 0
0.111667 -0.0228312 0
0.108333 -0.0228312 0
0.105 -0.0228312 0
0.101667 -0.0228312 0
0.0983333 -0.0228312 0
0.095 -0.0228312 0
0.0916667 -0.0228312 0
0.0883333 -0.0228312 0
0.085 -0.0228312 0
0.0816667 -0.0228312 0
0.0783333 -0.0228312 0
0.075 -0.0228312 0
0.0716667 -0.0228312 0
0.0683333 -0.0228312 0
0.065 -0.0228312 0
0.0616667 -0.0228312 0
0.0583333 -0.0228312 0
0.055 -0.0228312 0
0.0516667 -0.0228312 0
0.0483333 -0.0228312 0
0.045 -0.0228312 0
0.0416667 -0.0228312 0
0.14 -0.025718 0
0.136667 -0.025718 0
0.133333 -0.025718 0
0.13 -0.025718 0
0.126667 -0.025718 0
0.123333 -0.025718 0
0.12 -0.025718 0
0.116667 -0.025718 0
0.113333 -0.025718 0
0.11 -0.025718 0
0.106667 -0.025718 0
0.103333 -0.025718 0
0.1 -0.025718 0
0.0966667 -0.025718 0
0.0933333 -0.025718 0
0.09 -0.025718 0
0.0866667 -0.025718 0
0.0833333 -0.025718 0
0.08 -0.025718 0
0.0766667 -0.025718 0
0.0733333 -0.025718 0
0.07 -0.025718 0
0.0666667 -0.025718 0
0.0633333 -0.025718 0
0.06 -0.025718 0
0.0566667 -0.025718 0
0.0533333 -0.025718 0
0.05 -0.025718 0
0.0466667 -0.025718 0
0.0433333 -0.025718 0
0.04 -0.025718 0
0.138333 -0.0286047 0
0.135 -0.0286047 0
0.131667 -0.0286047 0
0.128333 -0.0286047 0
0.125 -0.0286047 0
0.121667 -0.0286047 0
0.118333 -0.0286047 0
0.115 -0.0286047 0
0.111667 -0.0286047 0
0.108333 -0.0286047 0
0.105 -0.0286047 0
0.101667 -0.0286047 0
0.0983333 -0.0286047 0
0.095 -0.0286047 0
0.0916667 -0.0286047 0
0.0883333 -0.0286047 0
0.085 -0.0286047 0
0.0816667 -0.0286047 0
0.0783333 -0.0286047 0
0.075 -0.0286047 0
0.0716667 -0.0286047 0
0.0683333 -0.0286047 0
0.065 -0.0286047 0
0.0616667 -0.0286047 0
0.0583333 -0.0286047 0
0.055 -0.0286047 0
0.0516667 -0.0286047 0
0.0483333 -0.0286047 0
0.045 -0.0286047 0
0.0416667 -0.0286047 0
0.0383333 -0.0286047 0
0.136667 -0.0314915 0
0.133333 -0.0314915 0
0.13 -0.0314915 0
0.126667 -0.0314915 0
0.123333 -0.0314915 0
0.12 -0.0314915 0
0.116667 -0.0314915 0
0.113333 -0.0314915 0
0.11 -0.0314915 0
0.106667 -0.0314915 0
0.103333 -0.0314915 0
0.1 -0.0314915 0
0.0966667 -0.0314915 0
0.0933333 -0.0314915 0
0.09 -0.0314915 0
0.0866667 -0.0314915 0
0.0833333 -0.0314915 0
0.08 -0.0314915 0
0.0766667 -0.0314915 0
0.0733333 -0.0314915 0
0.07 -0.0314915 0
0.0666667 -0.0314915 0
0.0633333 -0.0314915 0
0.06 -0.0314915 0
0.0566667 -0.0314915 0
0.0533333 -0.0314915 0
0.05 -0.0314915 0
0.0466667 -0.0314915 0
0.0433333 -0.0314915 0
0.04 -0.0314915 0
0.0366667 -0.0314915 0
0.135 -0.0343782 0
0.131667 -0.0343782 0
0.128333 -0.0343782 0
0.125 -0.0343782 0
0.121667 -0.0343782 0
0.118333 -0.0343782 0
0.115 -0.0343782 0
0.111667 -0.0343782 0
0.108333 -0.0343782 0
0.105 -0.0343782 0
0.101667 -0.0343782 0
0.0983333 -0.0343782 0
0.095 -0.0343782 0
0.0916667 -0.0343782 0
0.0883333 -0.0343782 0
0.085 -0.0343782 0
0.0816667 -0.0343782 0
0.0783333 -0.0343782 0
0.075 -0.0343782 0
0.0716667 -0.0343782 0
0.0683333 -0.0343782 0
0.065 -0.0343782 0
0.0616667 -0.0343782 0
0.0583333 -0.0343782 0
0.055 -0.0343782 0
0.0516667 -0.0343782 0
0.0483333 -0.0343782 0
0.045 -0.0343782 0
0.0416667 -0.0343782 0
0.0383333 -0.0343782 0
0.035 -0.0343782 0
0.133333 -0.037265 0
0.13 -0.037265 0
0.126667 -0.037265 0
0.123333 -0.037265 0
0.12 -0.037265 0
0.116667 -0.037265 0
0.113333 -0.037265 0
0.11 -0.037265 0
0.106667 -0.037265 0
0.103333 -0.037265 0
0.1 -0.037265 0
0.0966667 -0.037265 0
0.0933333 -0.037265 0
0.09 -0.037265 0
0.0866667 -0.037265 0
0.0833333 -0.037265 0
0.08 -0.037265 0
0.0766667 -0.037265 0
0.0733333 -0.037265 0
0.07 -0.037265 0
0.0666667 -0.037265 0
0.0633333 -0.037265 0
0.06 -0.037265 0
0.0566667 -0.037265 0
0.0533333 -0.037265 0
0.05 -0.037265 0
0.0466667 -0.037265 0
0.0433333 -0.037265 0
0.04 -0.037265 0
0.0366667 -0.037265 0
0.0333333 -0.037265 0
0.131667 -0.0401517 0
0.128333 -0.0401517 0
0.125 -0.0401517 0
0.121667 -0.0401517 0
0.118333 -0.0401517 0
0.115 -0.0401517 0
0.111667 -0.0401517 0
0.108333 -0.0401517 0
0.105 -0.0401517 0
0.101667 -0.0401517 0
0.0983333 -0.0401517 0
0.095 -0.0401517 0
0.0916667 -0.0401517 0
0.0883333 -0.0401517 0
0.085 -0.0401517 0
0.0816667 -0.0401517 0
0.0783333 -0.0401517 0
0.075 -0.0401517 0
0.0716667 -0.0401517 0
0.0683333 -0.0401517 0
0.065 -0.0401517 0
0.0616667 -0.0401517 0
0.0583333 -0.0401517 0
0.055 -0.0401517 0
0.0516667 -0.0401517 0
0.0483333 -0.0401517 0
0.045 -0.0401517 0
0.0416667 -0.0401517 0
0.0383333 -0.0401517 0
0.035 -0.0401517 0
0.0316667 -0.0401517 0
0.13 -0.0430385 0
0.126667 -0.0430385 0
0.123333 -0.0430385 0
0.12 -0.0430385 0
0.116667 -0.0430385 0
0.113333 -0.0430385 0
0.11 -0.0430385 0
0.106667 -0.0430385 0
0.103333 -0.0430385 0
0.1 -0.0430385 0
0.0966667 -0.0430385 0
0.0933333 -0.0430385 0
0.09 -0.0430385 0
0.0866667 -0.0430385 0
0.0833333 -0.0430385 0
0.08 -0.0430385 0
0.0766667 -0.0430385 0
0.0733333 -0.0430385 0
0.07 -0.0430385 0
0.0666667 -0.0430385 0
0.0633333 -0.0430385 0
0.06 -0.0430385 0
0.0566667 -0.0430385 0
0.0533333 -0.0430385 0
0.05 -0.0430385 0
0.0466667 -0.0430385 0
0.0433333 -0.0430385 0
0.04 -0.0430385 0
0.0366667 -0.0430385 0
0.0333333 -0.0430385 0
0.03 -0.0430385 0
0.128333 -0.0459252 0
0.125 -0.0459252 0
0.121667 -0.0459252 0
0.118333 -0.0459252 0
0.115 -0.0459252 0
0.111667 -0.0459252 0
0.108333 -0.0459252 0
0.105 -0.0459252 0
0.101667 -0.0459252 0
0.0983333 -0.0459252 0
0.095 -0.0459252 0
0.0916667 -0.0459252 0
0.0883333 -0.0459252 0
0.085 -0.0459252 0
0.0816667 -0.0459252 0
0.0783333 -0.0459252 0
0.075 -0.0459252 0
0.0716667 -0.0459252 0
0.0683333 -0.0459252 0
0.065 -0.0459252 0
0.0616667 -0.0459252 0
0.0583333 -0.0459252 0
0.055 -0.0459252 0
0.0516667 -0.0459252 0
0.0483333 -0.0459252 0
0.045 -0.0459252 0
0.0416667 -0.0459252 0
0.0383333 -0.0459252 0
0.035 -0.0459252 0
0.0316667 -0.0459252 0
0.0283333 -0.0459252 0
0.126667 -0.048812 0
0.123333 -0.048812 0
0.12 -0.048812 0
0.116667 -0.048812 0
0.113333 -0.048812 0
0.11 -0.048812 0
0.106667 -0.048812 0
0.103333 -0.048812 0
0.1 -0.048812 0
0.0966667 -0.048812 0
0.0933333 -0.048812 0
0.09 -0.048812 0
0.0866667 -0.048812 0
0.0833333 -0.048812 0
0.08 -0.048812 0
0.0766667 -0.048812 0
0.0733333 -0.048812 0
0.07 -0.048812 0
0.0666667 -0.048812 0
0.0633333 -0.048812 0
0.06 -0.048812 0
0.0566667 -0.048812 0
0.0533333 -0.048812 0
0.05 -0.048812 0
0.0466667 -0.048812 0
0.0433333 -0.048812 0
0.04 -0.048812 0
0.0366667 -0.048812 0
0.0333333 -0.048812 0
0.03 -0.048812 0
0.0266667 -0.048812 0
0.125 -0.0516987 0
0.121667 -0.0516987 0
0.118333 -0.0516987 0
0.115 -0.0516987 0
0.111667 -0.0516987 0
0.108333 -0.0516987 0
[...]
POINT_DATA 961
SCALARS Temp float 1
LOOKUP_TABLE default
545.791
503.247
464.408
429.912
399.868
374.197
352.676
334.977
320.698
309.396
300.623
293.944
288.961
285.322
282.731
280.949
279.794
279.143
278.923
279.116
279.756
280.932
282.784
285.51
289.36
294.635
301.677
310.859
322.568
337.203
355.321
503.247
460.829
422.853
389.448
360.615
336.194
315.9
299.354
286.12
275.735
267.742
261.71
257.251
254.028
251.765
250.243
249.304
248.844
248.815
249.226
250.136
251.661
253.977
257.31
261.946
268.214
276.483
287.143
300.591
317.222
337.203
464.407
422.853
385.941
353.734
326.146
302.948
283.805
268.302
255.982
246.377
239.029
233.519
229.473
226.574
224.563
223.245
222.479
222.185
222.337
222.964
224.154
226.049
228.851
232.818
238.26
245.532
255.016
267.111
282.199
300.591
322.568
429.912
389.448
353.734
322.769
296.4
274.35
256.249
241.66
230.118
221.157
214.33
209.23
205.504
202.851
201.034
199.875
199.255
199.11
199.435
200.282
201.76
204.036
207.337
211.944
218.19
226.442
237.092
250.53
267.111
287.143
310.858
399.868
360.615
326.145
296.4
271.178
250.169
232.98
219.168
208.27
199.827
193.409
188.626
185.142
182.675
181.007
179.977
179.48
179.473
179.969
181.037
182.807
185.467
189.265
194.502
201.522
210.703
222.434
237.092
255.016
276.483
301.677
374.197
336.194
302.948
274.35
250.169
230.073
213.66
200.491
190.11
182.075
175.971
171.427
168.124
165.798
164.245
163.32
162.934
163.057
163.719
165.007
167.067
170.105
174.384
180.219
187.964
197.997
210.703
226.442
245.532
268.214
294.635
352.676
315.9
283.805
256.249
232.98
213.66
197.89
185.238
175.264
167.542
161.674
157.308
154.139
151.919
150.457
149.621
149.335
149.584
150.408
151.909
154.25
157.648
162.38
168.769
177.171
187.964
201.522
218.19
238.26
261.946
289.36
334.977
299.354
268.302
241.66
219.168
200.491
185.238
172.992
163.33
155.844
150.151
145.915
142.846
140.707
139.319
138.561
138.368
138.734
139.713
141.419
144.024
147.757
152.902
159.787
168.769
180.219
194.502
211.944
232.818
257.31
285.51
320.698
286.12
255.982
230.118
208.27
190.11
175.264
163.33
153.904
146.591
141.027
136.886
133.891
131.815
130.49
129.801
129.693
130.171
131.296
133.192
136.038
140.073
145.585
152.902
162.38
174.384
189.265
207.337
228.851
253.977
282.784
309.396
275.735
246.377
221.157
199.827
182.075
167.542
155.843
146.591
139.405
133.935
129.864
126.926
124.902
123.63
123.004
122.976
123.557
124.817
126.884
129.946
134.246
140.073
147.757
157.648
170.105
185.467
204.036
226.049
251.661
280.932
300.623
267.742
239.029
214.33
193.409
175.971
161.674
150.151
141.027
133.935
128.533
124.517
121.624
119.644
118.421
117.852
117.897
118.572
119.952
122.171
125.421
129.946
136.038
144.024
154.25
167.067
182.807
201.76
224.154
250.136
279.756
293.944
261.71
233.519
209.23
188.626
171.427
157.308
145.915
136.886
129.864
124.517
120.544
117.691
115.751
114.571
114.056
114.168
114.927
116.412
118.762
122.171
126.884
133.192
141.419
151.909
165.007
181.037
200.282
222.964
249.226
279.116
288.961
257.251
229.473
205.504
185.142
168.124
154.139
142.846
133.891
126.926
121.624
117.691
114.875
112.972
111.835
111.37
111.542
112.375
113.952
116.412
119.952
124.817
131.296
139.713
150.408
163.719
179.969
199.435
222.337
248.815
278.923
285.322
254.028
226.574
202.851
182.675
165.798
151.919
140.707
131.815
124.902
119.644
115.751
112.972
111.108
110.013
109.595
109.822
110.721
112.375
114.927
118.572
123.557
130.171
138.734
149.584
163.057
179.473
199.11
222.185
248.844
279.143
282.731
251.765
224.563
201.034
181.007
164.245
150.457
139.319
130.49
123.63
118.421
114.571
111.835
110.013
108.96
108.588
108.866
109.822
111.542
114.168
117.897
122.976
129.693
138.368
149.335
162.934
179.48
199.255
222.479
249.304
279.794
280.949
250.243
223.245
199.875
179.976
163.32
149.621
138.561
129.801
123.004
117.852
114.056
111.37
109.595
108.588
108.262
108.588
109.595
111.37
114.056
117.852
123.004
129.801
138.561
149.621
163.32
179.977
199.875
223.245
250.243
280.949
279.795
249.304
222.479
199.255
179.48
162.934
149.335
138.368
129.693
122.976
117.897
114.168
111.542
109.822
108.866
108.588
108.96
110.013
111.835
114.571
118.42
123.63
130.49
139.319
150.457
164.245
181.007
201.034
224.563
251.765
282.731
279.143
248.844
222.185
199.11
179.473
163.057
149.584
138.734
130.171
123.557
118.572
114.927
112.375
110.721
109.822
109.595
110.013
111.108
112.972
115.751
119.644
124.902
131.815
140.707
151.919
165.798
182.675
202.851
226.574
254.028
285.322
278.923
248.815
222.337
199.435
179.969
163.719
150.408
139.713
131.296
124.817
119.952
116.412
113.952
112.375
111.542
111.37
111.835
112.972
114.875
117.691
121.624
126.926
133.891
142.846
154.139
168.124
185.142
205.504
229.473
257.251
288.961
279.116
249.226
222.964
200.282
181.037
165.007
151.909
141.419
133.192
126.884
122.171
118.762
116.412
114.927
114.168
114.056
114.571
115.751
117.691
120.544
124.517
129.864
136.886
145.915
157.308
171.427
188.626
209.23
233.519
261.71
293.944
279.756
250.136
224.154
201.76
182.807
167.067
154.25
144.024
136.038
129.946
125.421
122.171
119.952
118.572
117.897
117.852
118.421
119.644
121.624
124.517
128.533
133.935
141.027
150.151
161.674
175.971
193.409
214.33
239.029
267.742
300.623
280.932
251.661
226.049
204.036
185.467
170.105
157.648
147.757
140.073
134.246
129.946
126.884
124.817
123.557
122.976
123.004
123.63
124.902
126.926
129.864
133.935
139.405
146.591
155.844
167.542
182.075
199.827
221.157
246.377
275.735
309.396
282.784
253.977
228.851
207.337
189.265
174.384
162.38
152.902
145.585
140.073
136.038
133.192
131.296
130.171
129.693
129.801
130.49
131.815
133.891
136.886
141.027
146.591
153.904
163.33
175.264
190.11
208.27
230.118
255.982
286.12
320.698
285.51
257.31
232.818
211.944
194.502
180.219
168.769
159.787
152.902
147.757
144.024
141.419
139.713
138.734
138.368
138.561
139.319
140.707
142.846
145.915
150.151
155.844
163.33
172.992
185.238
200.491
219.168
241.66
268.302
299.354
334.977
289.36
261.946
238.26
218.19
201.522
187.964
177.171
168.769
162.38
157.648
154.25
151.909
150.408
149.584
149.335
149.621
150.457
151.919
154.139
157.308
161.674
167.542
175.264
185.238
197.89
213.66
232.98
256.249
283.805
315.9
352.676
294.635
268.214
245.532
226.442
210.703
197.997
187.964
180.219
174.384
170.105
167.067
165.007
163.719
163.057
162.934
163.32
164.245
165.798
168.124
171.427
175.971
182.075
190.11
200.491
213.66
230.073
250.169
274.35
302.948
336.194
374.197
301.677
276.483
255.016
237.092
222.434
210.703
201.522
194.502
189.265
185.467
182.807
181.037
179.969
179.473
179.48
179.976
181.007
182.675
185.142
188.626
193.409
199.827
208.27
219.168
232.98
250.169
271.178
296.4
326.145
360.615
399.868
310.859
287.143
267.111
250.53
237.092
226.442
218.19
211.944
207.337
204.036
201.76
200.282
199.435
199.11
199.255
199.875
201.034
202.851
205.504
209.23
214.33
221.157
230.118
241.66
256.249
274.35
296.4
322.769
353.734
389.448
429.912
322.568
300.591
282.199
267.111
255.016
245.532
238.26
232.818
228.851
226.049
224.154
222.964
222.337
222.185
222.479
223.245
224.563
226.574
229.473
233.519
239.029
246.377
255.982
268.302
283.805
302.948
326.145
353.734
385.941
422.853
464.407
337.203
317.222
300.591
287.143
276.483
268.214
261.946
257.31
253.977
251.661
250.136
249.226
248.815
248.844
249.304
250.243
251.765
254.028
257.251
261.71
267.742
275.735
286.12
299.354
315.9
336.194
360.615
389.448
422.853
460.829
503.246
355.321
337.203
322.568
310.859
301.677
294.635
289.36
285.51
282.784
280.932
279.756
279.116
278.923
279.143
279.794
280.949
282.731
285.322
288.961
293.944
300.623
309.396
320.698
334.977
352.676
374.197
399.868
429.912
464.407
503.246
545.79
