# vtk DataFile Version 2.0
Unstructured Grid Example
ASCII
DATASET UNSTRUCTURED_GRID

POINTS 961 float
0.15 -0.00839746 0
0.146667 -0.00839746 0
0.143333 -0.00839746 0
0.14 -0.00839746 0
0.136667 -0.00839746 0
0.133333 -0.00839746 0
0.13 -0.00839746 0
0.126667 -0.00839746 0
0.123333 -0.00839746 0
0.12 -0.00839746 0
0.116667 -0.00839746 0
0.113333 -0.00839746 0
0.11 -0.00839746 0
0.106667 -0.00839746 0
0.103333 -0.00839746 0
0.1 -0.00839746 0
0.0966667 -0.00839746 0
0.0933333 -0.00839746 0
0.09 -0.00839746 0
0.0866667 -0.00839746 0
0.0833333 -0.00839746 0
0.08 -0.00839746 0
0.0766667 -0.00839746 0
0.0733333 -0.00839746 0
0.07 -0.00839746 0
0.0666667 -0.00839746 0
0.0633333 -0.00839746 0
0.06 -0.00839746 0
0.0566667 -0.00839746 0
0.0533333 -0.00839746 0
0.05 -0.00839746 0
0.148333 -0.0112842 0
0.145 -0.0112842 0
0.141667 -0.0112842 0
0.138333 -0.0112842 0
0.135 -0.0112842 0
0.131667 -0.0112842 0
0.128333 -0.0112842 0
0.125 -0.0112842 0
0.121667 -0.0112842 0
0.118333 -0.0112842 0
0.115 -0.0112842 0
0.111667 -0.0112842 0
0.108333 -0.0112842 0
0.105 -0.0112842 0
0.101667 -0.0112842 0
0.0983333 -0.0112842 0
0.095 -0.0112842 0
0.0916667 -0.0112842 0
0.0883333 -0.0112842 0
0.085 -0.0112842 0
0.0816667 -0.0112842 0
0.0783333 -0.0112842 0
0.075 -0.0112842 0
0.0716667 -0.0112842 0
0.0683333 -0.0112842 0
0.065 -0.0112842 0
0.0616667 -0.0112842 0
0.0583333 -0.0112842 0
0.055 -0.0112842 0
0.0516667 -0.0112842 0
0.0483333 -0.0112842 0
0.146667 -0.014171 0
0.143333 -0.014171 0
0.14 -0.014171 0
0.136667 -0.014171 0
0.133333 -0.014171 0
0.13 -0.014171 0
0.126667 -0.014171 0
0.123333 -0.014171 0
0.12 -0.014171 0
0.116667 -0.014171 0
0.113333 -0.014171 0
0.11 -0.014171 0
0.106667 -0.014171 0
0.103333 -0.014171 0
0.1 -0.014171 0
0.0966667 -0.014171 0
0.0933333 -0.014171 0
0.09 -0.014171 0
0.0866667 -0.014171 0
0.0833333 -0.014171 0
0.08 -0.014171 0
0.0766667 -0.014171 0
0.0733333 -0.014171 0
0.07 -0.014171 0
0.0666667 -0.014171 0
0.0633333 -0.014171 0
0.06 -0.014171 0
0.0566667 -0.014171 0
0.0533333 -0.014171 0
0.05 -0.014171 0
0.0466667 -0.014171 0
0.145 -0.0170577 0
0.141667 -0.0170577 0
0.138333 -0.0170577 0
0.135 -0.0170577 0
0.131667 -0.0170577 0
0.128333 -0.0170577 0
0.125 -0.0170577 0
0.121667 -0.0170577 0
0.118333 -0.0170577 0
0.115 -0.0170577 0
0.111667 -0.0170577 0
0.108333 -0.0170577 0
0.105 -0.0170577 0
0.101667 -0.0170577 0
0.0983333 -0.0170577 0
0.095 -0.0170577 0
0.0916667 -0.0170577 0
0.0883333 -0.0170577 0
0.085 -0.0170577 0
0.0816667 -0.0170577 0
0.0783333 -0.0170577 0
0.075 -0.0170577 0
0.0716667 -0.0170577 0
0.0683333 -0.0170577 0
0.065 -0.0170577 0
0.0616667 -0.0170577 0
0.0583333 -0.0170577 0
0.055 -0.0170577 0
0.0516667 -0.0170577 0
0.0483333 -0.0170577 0
0.045 -0.0170577 0
0.143333 -0.0199445 0
0.14 -0.0199445 0
0.136667 -0.0199445 0
0.133333 -0.0199445 0
0.13 -0.0199445 0
0.126667 -0.0199445 0
0.123333 -0.0199445 0
0.12 -0.0199445 0
0.116667 -0.0199445 0
0.113333 -0.0199445 0
0.11 -0.0199445 0
0.106667 -0.0199445 0
0.103333 -0.0199445 0
0.1 -0.0199445 0
0.0966667 -0.0199445 0
0.0933333 -0.0199445 0
0.09 -0.0199445 0
0.0866667 -0.0199445 0
0.0833333 -0.0199445 0
0.08 -0.0199445 0
0.0766667 -0.0199445 0
0.0733333 -0.0199445 0
0.07 -0.0199445 0
0.0666667 -0.0199445 0
0.0633333 -0.0199445 0
0.06 -0.0199445 0
0.0566667 -0.0199445 0
0.0533333 -0.0199445 0
0.05 -0.0199445 0
0.0466667 -0.0199445 0
0.0433333 -0.0199445 0
0.141667 -0.0228312 0
0.138333 -0.0228312 0
0.135 -0.0228312 0
0.131667 -0.0228312 0
0.128333 -0.0228312 0
0.125 -0.0228312 0
0.121667 -0.0228312 0
0.118333 -0.0228312 0
0.115 -0.0228312 0
0.111667 -0.0228312 0
0.108333 -0.0228312 0
0.105 -0.0228312 0
0.101667 -0.0228312 0
0.0983333 -0.0228312 0
0.095 -0.0228312 0
0.0916667 -0.0228312 0
0.0883333 -0.0228312 0
0.085 -0.0228312 0
0.0816667 -0.0228312 0
0.0783333 -0.0228312 0
0.075 -0.0228312 0
0.0716667 -0.0228312 0
0.0683333 -0.0228312 0
0.065 -0.0228312 0
0.0616667 -0.0228312 0
0.0583333 -0.0228312 0
0.055 -0.0228312 0
0.0516667 -0.0228312 0
0.0483333 -0.0228312 0
0.045 -0.0228312 0
0.0416667 -0.0228312 0
0.14 -0.025718 0
0.136667 -0.025718 0
0.133333 -0.025718 0
0.13 -0.025718 0
0.126667 -0.025718 0
0.123333 -0.025718 0
0.12 -0.025718 0
0.116667 -0.025718 0
0.113333 -0.025718 0
0.11 -0.025718 0
0.106667 -0.025718 0
0.103333 -0.025718 0
0.1 -0.025718 0
0.0966667 -0.025718 0
0.0933333 -0.025718 0
0.09 -0.025718 0
0.0866667 -0.025718 0
0.0833333 -0.025718 0
0.08 -0.025718 0
0.0766667 -0.025718 0
0.0733333 -0.025718 0
0.07 -0.025718 0
0.0666667 -0.025718 0
0.0633333 -0.025718 0
0.06 -0.025718 0
0.0566667 -0.025718 0
0.0533333 -0.025718 0
0.05 -0.025718 0
0.0466667 -0.025718 0
0.0433333 -0.025718 0
0.04 -0.025718 0
0.138333 -0.0286047 0
0.135 -0.0286047 0
0.131667 -0.0286047 0
0.128333 -0.0286047 0
0.125 -0.0286047 0
0.121667 -0.0286047 0
0.118333 -0.0286047 0
0.115 -0.0286047 0
0.111667 -0.0286047 0
0.108333 -0.0286047 0
0.105 -0.0286047 0
0.101667 -0.0286047 0
0.0983333 -0.0286047 0
0.095 -0.0286047 0
0.0916667 -0.0286047 0
0.0883333 -0.0286047 0
0.085 -0.0286047 0
0.0816667 -0.0286047 0
0.0783333 -0.0286047 0
0.075 -0.0286047 0
0.0716667 -0.0286047 0
0.0683333 -0.0286047 0
0.065 -0.0286047 0
0.0616667 -0.0286047 0
0.0583333 -0.0286047 0
0.055 -0.0286047 0
0.0516667 -0.0286047 0
0.0483333 -0.0286047 0
0.045 -0.0286047 0
0.0416667 -0.0286047 0
0.0383333 -0.0286047 0
0.136667 -0.0314915 0
0.133333 -0.0314915 0
0.13 -0.0314915 0
0.126667 -0.0314915 0
0.123333 -0.0314915 0
0.12 -0.0314915 0
0.116667 -0.0314915 0
0.113333 -0.0314915 0
0.11 -0.0314915 0
0.106667 -0.0314915 0
0.103333 -0.0314915 0
0.1 -0.0314915 0
0.0966667 -0.0314915 0
0.0933333 -0.0314915 0
0.09 -0.0314915 0
0.0866667 -0.0314915 0
0.0833333 -0.0314915 0
0.08 -0.0314915 0
0.0766667 -0.0314915 0
0.0733333 -0.0314915 0
0.07 -0.0314915 0
0.0666667 -0.0314915 0
0.0633333 -0.0314915 0
0.06 -0.0314915 0
0.0566667 -0.0314915 0
0.0533333 -0.0314915 0
0.05 -0.0314915 0
0.0466667 -0.0314915 0
0.0433333 -0.0314915 0
0.04 -0.0314915 0
0.0366667 -0.0314915 0
0.135 -0.0343782 0
0.131667 -0.0343782 0
0.128333 -0.0343782 0
0.125 -0.0343782 0
0.121667 -0.0343782 0
0.118333 -0.0343782 0
0.115 -0.0343782 0
0.111667 -0.0343782 0
0.108333 -0.0343782 0
0.105 -0.0343782 0
0.101667 -0.0343782 0
0.0983333 -0.0343782 0
0.095 -0.0343782 0
0.0916667 -0.0343782 0
0.0883333 -0.0343782 0
0.085 -0.0343782 0
0.0816667 -0.0343782 0
0.0783333 -0.0343782 0
0.075 -0.0343782 0
0.0716667 -0.0343782 0
0.0683333 -0.0343782 0
0.065 -0.0343782 0
0.0616667 -0.0343782 0
0.0583333 -0.0343782 0
0.055 -0.0343782 0
0.0516667 -0.0343782 0
0.0483333 -0.0343782 0
0.045 -0.0343782 0
0.0416667 -0.0343782 0
0.0383333 -0.0343782 0
0.035 -0.0343782 0
0.133333 -0.037265 0
0.13 -0.037265 0
0.126667 -0.037265 0
0.123333 -0.037265 0
0.12 -0.037265 0
0.116667 -0.037265 0
0.113333 -0.037265 0
0.11 -0.037265 0
0.106667 -0.037265 0
0.103333 -0.037265 0
0.1 -0.037265 0
0.0966667 -0.037265 0
0.0933333 -0.037265 0
0.09 -0.037265 0
0.0866667 -0.037265 0
0.0833333 -0.037265 0
0.08 -0.037265 0
0.0766667 -0.037265 0
0.0733333 -0.037265 0
0.07 -0.037265 0
0.0666667 -0.037265 0
0.0633333 -0.037265 0
0.06 -0.037265 0
0.0566667 -0.037265 0
0.0533333 -0.037265 0
0.05 -0.037265 0
0.0466667 -0.037265 0
0.0433333 -0.037265 0
0.04 -0.037265 0
0.0366667 -0.037265 0
0.0333333 -0.037265 0
0.131667 -0.0401517 0
0.128333 -0.0401517 0
0.125 -0.0401517 0
0.121667 -0.0401517 0
0.118333 -0.0401517 0
0.115 -0.0401517 0
0.111667 -0.0401517 0
0.108333 -0.0401517 0
0.105 -0.0401517 0
0.101667 -0.0401517 0
0.0983333 -0.0401517 0
0.095 -0.0401517 0
0.0916667 -0.0401517 0
0.0883333 -0.0401517 0
0.085 -0.0401517 0
0.0816667 -0.0401517 0
0.0783333 -0.0401517 0
0.075 -0.0401517 0
0.0716667 -0.0401517 0
0.0683333 -0.0401517 0
0.065 -0.0401517 0
0.0616667 -0.0401517 0
0.0583333 -0.0401517 0
0.055 -0.0401517 0
0.0516667 -0.0401517 0
0.0483333 -0.0401517 0
0.045 -0.0401517 0
0.0416667 -0.0401517 0
0.0383333 -0.0401517 0
0.035 -0.0401517 0
0.0316667 -0.0401517 0
0.13 -0.0430385 0
0.126667 -0.0430385 0
0.123333 -0.0430385 0
0.12 -0.0430385 0
0.116667 -0.0430385 0
0.113333 -0.0430385 0
0.11 -0.0430385 0
0.106667 -0.0430385 0
0.103333 -0.0430385 0
0.1 -0.0430385 0
0.0966667 -0.0430385 0
0.0933333 -0.0430385 0
0.09 -0.0430385 0
0.0866667 -0.0430385 0
0.0833333 -0.0430385 0
0.08 -0.0430385 0
0.0766667 -0.0430385 0
0.0733333 -0.0430385 0
0.07 -0.0430385 0
0.0666667 -0.0430385 0
0.0633333 -0.0430385 0
0.06 -0.0430385 0
0.0566667 -0.0430385 0
0.0533333 -0.0430385 0
0.05 -0.0430385 0
0.0466667 -0.0430385 0
0.0433333 -0.0430385 0
0.04 -0.0430385 0
0.0366667 -0.0430385 0
0.0333333 -0.0430385 0
0.03 -0.0430385 0
0.128333 -0.0459252 0
0.125 -0.0459252 0
0.121667 -0.0459252 0
0.118333 -0.0459252 0
0.115 -0.0459252 0
0.111667 -0.0459252 0
0.108333 -0.0459252 0
0.105 -0.0459252 0
0.101667 -0.0459252 0
0.0983333 -0.0459252 0
0.095 -0.0459252 0
0.0916667 -0.0459252 0
0.0883333 -0.0459252 0
0.085 -0.0459252 0
0.0816667 -0.0459252 0
0.0783333 -0.0459252 0
0.075 -0.0459252 0
0.0716667 -0.0459252 0
0.0683333 -0.0459252 0
0.065 -0.0459252 0
0.0616667 -0.0459252 0
0.0583333 -0.0459252 0
0.055 -0.0459252 0
0.0516667 -0.0459252 0
0.0483333 -0.0459252 0
0.045 -0.0459252 0
0.0416667 -0.0459252 0
0.0383333 -0.0459252 0
0.035 -0.0459252 0
0.0316667 -0.0459252 0
0.0283333 -0.0459252 0
0.126667 -0.048812 0
0.123333 -0.048812 0
0.12 -0.048812 0
0.116667 -0.048812 0
0.113333 -0.048812 0
0.11 -0.048812 0
0.106667 -0.048812 0
0.103333 -0.048812 0
0.1 -0.048812 0
0.0966667 -0.048812 0
0.0933333 -0.048812 0
0.09 -0.048812 0
0.0866667 -0.048812 0
0.0833333 -0.048812 0
0.08 -0.048812 0
0.0766667 -0.048812 0
0.0733333 -0.048812 0
0.07 -0.048812 0
0.0666667 -0.048812 0
0.0633333 -0.048812 0
0.06 -0.048812 0
0.0566667 -0.048812 0
0.0533333 -0.048812 0
0.05 -0.048812 0
0.0466667 -0.048812 0
0.0433333 -0.048812 0
0.04 -0.048812 0
0.0366667 -0.048812 0
0.0333333 -0.048812 0
0.03 -0.048812 0
0.0266667 -0.048812 0
0.125 -0.0516987 0
0.121667 -0.0516987 0
0.118333 -0.0516987 0
0.115 -0.0516987 0
0.111667 -0.0516987 0
0.108333 -0.0516987 0
[...]
POINT_DATA 961
SCALARS Temp float 1
LOOKUP_TABLE default
571.884
530.749
492.804
458.632
428.373
402.018
379.437
360.406
344.631
331.771
321.462
313.34
307.056
302.289
298.76
296.233
294.524
293.498
293.075
293.224
293.968
295.381
297.589
300.765
305.128
310.938
318.484
328.078
340.042
354.707
372.552
530.749
489.569
452.229
418.883
389.586
364.265
342.734
324.725
309.91
297.923
288.389
280.936
275.218
270.925
267.79
265.594
264.172
263.411
263.252
263.691
264.776
266.608
269.341
273.177
278.361
285.177
293.933
304.956
318.574
335.115
354.707
492.804
452.229
415.693
383.299
355.03
330.755
310.244
293.193
279.25
268.036
259.168
252.279
247.031
243.125
240.31
238.386
237.206
236.679
236.768
237.491
238.922
241.185
244.461
248.975
254.994
262.82
272.774
285.184
300.366
318.574
340.042
458.632
418.883
383.299
351.93
324.705
301.448
281.893
265.713
252.541
241.992
233.685
227.262
222.395
218.801
216.245
214.545
213.574
213.258
213.583
214.588
216.367
219.069
222.895
228.089
234.936
243.748
254.851
268.566
285.184
304.956
328.078
428.373
389.586
355.03
324.705
298.498
276.196
257.511
242.101
229.592
219.602
211.759
205.713
201.151
197.806
195.459
193.946
193.156
193.036
193.588
194.871
196.999
200.138
204.508
210.368
218.015
227.765
239.941
254.851
272.774
293.933
318.484
402.018
364.265
330.755
301.448
276.196
254.763
236.847
222.1
210.15
200.621
193.151
187.405
183.084
179.937
177.761
176.406
175.779
175.841
176.613
178.168
180.638
184.205
189.101
195.597
203.995
214.612
227.765
243.748
262.82
285.177
310.938
379.437
342.734
310.244
281.893
257.511
236.847
219.594
205.404
193.914
184.756
177.583
172.073
167.942
164.952
162.916
161.697
161.217
161.452
162.434
164.253
167.053
171.029
176.421
183.509
192.596
203.995
218.015
234.936
254.994
278.361
305.128
360.406
324.725
293.193
265.713
242.101
222.1
205.404
191.674
180.553
171.691
164.75
159.423
155.441
152.578
150.659
149.56
149.215
149.612
150.795
152.865
155.976
160.333
166.183
173.807
183.509
195.597
210.368
228.089
248.975
273.177
300.765
344.631
309.91
279.25
252.541
229.592
210.15
193.914
180.553
169.727
161.095
154.334
149.15
145.286
142.526
140.707
139.716
139.496
140.044
141.415
143.719
147.117
151.822
158.083
166.183
176.421
189.101
204.508
222.895
244.461
269.341
297.589
331.771
297.923
268.036
241.992
219.603
200.621
184.756
171.691
161.095
152.642
146.022
140.95
137.18
134.507
132.776
131.882
131.777
132.465
134.01
136.528
140.187
145.2
151.822
160.333
171.029
184.205
200.138
219.069
241.185
266.608
295.381
321.462
288.388
259.168
233.686
211.759
193.151
177.583
164.75
154.334
146.022
139.511
134.53
130.839
128.242
126.589
125.785
125.785
126.603
128.306
131.016
134.904
140.187
147.117
155.976
167.053
180.638
196.999
216.367
238.922
264.776
293.968
313.34
280.936
252.279
227.262
205.712
187.405
172.073
159.423
149.15
140.95
134.53
129.626
126.004
123.475
121.895
121.173
121.271
122.207
124.051
126.93
131.016
136.528
143.719
152.865
164.253
178.168
194.871
214.588
237.491
263.691
293.224
307.056
275.218
247.031
222.395
201.151
183.084
167.942
155.441
145.286
137.18
130.839
126.004
122.447
119.982
118.472
117.828
118.016
119.058
121.027
124.051
128.306
134.01
141.415
150.795
162.434
176.613
193.588
213.583
236.768
263.252
293.075
302.289
270.925
243.125
218.801
197.806
179.937
164.952
152.578
142.526
134.507
128.242
123.475
119.982
117.583
116.141
115.571
115.843
116.979
119.058
122.207
126.603
132.465
140.044
149.612
161.452
175.841
193.036
213.258
236.679
263.411
293.498
298.76
267.79
240.31
216.245
195.459
177.761
162.916
150.659
140.707
132.776
126.589
121.895
118.472
116.141
114.768
114.271
114.621
115.843
118.016
121.271
125.785
131.777
139.496
149.215
161.217
175.779
193.156
213.574
237.206
264.172
294.524
296.233
265.594
238.386
214.545
193.946
176.406
161.697
149.56
139.716
131.882
125.785
121.173
117.828
115.571
114.271
113.846
114.271
115.571
117.828
121.173
125.785
131.882
139.716
149.56
161.697
176.406
193.946
214.545
238.386
265.594
296.233
294.524
264.172
237.206
213.574
193.156
175.779
161.217
149.215
139.496
131.777
125.785
121.271
118.016
115.843
114.621
114.271
114.768
116.141
118.472
121.895
126.589
132.776
140.707
150.659
162.916
177.761
195.459
216.245
240.31
267.79
298.76
293.498
263.411
236.679
213.258
193.036
175.841
161.452
149.612
140.044
132.465
126.603
122.207
119.058
116.979
115.843
115.571
116.141
117.583
119.982
123.475
128.242
134.507
142.526
152.578
164.952
179.937
197.806
218.801
243.125
270.925
302.289
293.075
263.252
236.768
213.583
193.588
176.613
162.434
150.795
141.415
134.01
128.306
124.051
121.027
119.058
118.016
117.828
118.472
119.982
122.447
126.004
130.839
137.18
145.286
155.441
167.942
183.084
201.151
222.395
247.031
275.218
307.056
293.224
263.691
237.491
214.588
194.871
178.168
164.253
152.865
143.719
136.528
131.016
126.93
124.051
122.207
121.271
121.173
121.895
123.475
126.004
129.626
134.53
140.95
149.15
159.423
172.073
187.405
205.712
227.262
252.279
280.936
313.34
293.968
264.776
238.922
216.367
196.999
180.638
167.053
155.976
147.117
140.187
134.904
131.016
128.306
126.603
125.785
125.785
126.589
128.242
130.839
134.53
139.511
146.022
154.334
164.75
177.583
193.151
211.759
233.685
259.168
288.389
321.462
295.381
266.608
241.185
219.069
200.138
184.205
171.029
160.333
151.822
145.2
140.187
136.528
134.01
132.465
131.777
131.882
132.776
134.507
137.18
140.95
146.022
152.642
161.095
171.691
184.756
200.621
219.602
241.992
268.036
297.923
331.771
297.589
269.341
244.461
222.895
204.508
189.101
176.422
166.183
158.083
151.822
147.117
143.719
141.415
140.044
139.496
139.716
140.707
142.526
145.286
149.15
154.334
161.095
169.727
180.553
193.914
210.15
229.592
252.541
279.25
309.91
344.631
300.765
273.177
248.975
228.089
210.368
195.597
183.509
173.807
166.183
160.333
155.976
152.865
150.795
149.612
149.216
149.56
150.659
152.578
155.441
159.423
164.75
171.691
180.553
191.674
205.404
222.1
242.101
265.713
293.193
324.725
360.406
305.128
278.361
254.994
234.936
218.015
203.995
192.596
183.509
176.422
171.029
167.053
164.253
162.434
161.452
161.217
161.697
162.916
164.952
167.942
172.073
177.583
184.756
193.914
205.404
219.594
236.847
257.511
281.893
310.244
342.734
379.437
310.938
285.177
262.82
243.748
227.765
214.612
203.995
195.597
189.101
184.205
180.638
178.168
176.613
175.841
175.779
176.406
177.761
179.937
183.084
187.405
193.151
200.621
210.15
222.1
236.847
254.763
276.196
301.448
330.755
364.265
402.018
318.484
293.933
272.774
254.851
239.941
227.765
218.015
210.368
204.508
200.138
196.999
194.871
193.588
193.036
193.156
193.946
195.459
197.806
201.151
205.712
211.759
219.602
229.592
242.101
257.511
276.196
298.498
324.705
355.03
389.586
428.373
328.078
304.956
285.184
268.566
254.852
243.748
234.936
228.089
222.895
219.069
216.367
214.588
213.583
213.258
213.574
214.545
216.245
218.801
222.395
227.262
233.686
241.992
252.541
265.713
281.893
301.448
324.705
351.93
383.299
418.883
458.632
340.042
318.574
300.366
285.184
272.774
262.82
254.994
248.975
244.461
241.185
238.922
237.491
236.768
236.679
237.206
238.386
240.31
243.125
247.031
252.279
259.168
268.036
279.25
293.193
310.244
330.755
355.03
383.299
415.693
452.229
492.804
354.707
335.115
318.574
304.956
293.933
285.177
278.361
273.177
269.341
266.608
264.776
263.691
263.252
263.411
264.172
265.594
267.79
270.925
275.218
280.936
288.389
297.923
309.91
324.725
342.734
364.265
389.586
418.883
452.229
489.569
530.749
372.552
354.707
340.042
328.078
318.484
310.938
305.128
300.765
297.589
295.381
293.968
293.224
293.075
293.498
294.524
296.233
298.76
302.289
307.056
313.34
321.462
331.771
344.631
360.406
379.437
402.018
428.373
458.632
492.804
530.749
571.884
