# vtk DataFile Version 2.0
Unstructured Grid Example
ASCII
DATASET UNSTRUCTURED_GRID

POINTS 961 float
0.15 -0.00839746 0
0.146667 -0.00839746 0
0.143333 -0.00839746 0
0.14 -0.00839746 0
0.136667 -0.00839746 0
0.133333 -0.00839746 0
0.13 -0.00839746 0
0.126667 -0.00839746 0
0.123333 -0.00839746 0
0.12 -0.00839746 0
0.116667 -0.00839746 0
0.113333 -0.00839746 0
0.11 -0.00839746 0
0.106667 -0.00839746 0
0.103333 -0.00839746 0
0.1 -0.00839746 0
0.0966667 -0.00839746 0
0.0933333 -0.00839746 0
0.09 -0.00839746 0
0.0866667 -0.00839746 0
0.0833333 -0.00839746 0
0.08 -0.00839746 0
0.0766667 -0.00839746 0
0.0733333 -0.00839746 0
0.07 -0.00839746 0
0.0666667 -0.00839746 0
0.0633333 -0.00839746 0
0.06 -0.00839746 0
0.0566667 -0.00839746 0
0.0533333 -0.00839746 0
0.05 -0.00839746 0
0.148333 -0.0112842 0
0.145 -0.0112842 0
0.141667 -0.0112842 0
0.138333 -0.0112842 0
0.135 -0.0112842 0
0.131667 -0.0112842 0
0.128333 -0.0112842 0
0.125 -0.0112842 0
0.121667 -0.0112842 0
0.118333 -0.0112842 0
0.115 -0.0112842 0
0.111667 -0.0112842 0
0.108333 -0.0112842 0
0.105 -0.0112842 0
0.101667 -0.0112842 0
0.0983333 -0.0112842 0
0.095 -0.0112842 0
0.0916667 -0.0112842 0
0.0883333 -0.0112842 0
0.085 -0.0112842 0
0.0816667 -0.0112842 0
0.0783333 -0.0112842 0
0.075 -0.0112842 0
0.0716667 -0.0112842 0
0.0683333 -0.0112842 0
0.065 -0.0112842 0
0.0616667 -0.0112842 0
0.0583333 -0.0112842 0
0.055 -0.0112842 0
0.0516667 -0.0112842 0
0.0483333 -0.0112842 0
0.146667 -0.014171 0
0.143333 -0.014171 0
0.14 -0.014171 0
0.136667 -0.014171 0
0.133333 -0.014171 0
0.13 -0.014171 0
0.126667 -0.014171 0
0.123333 -0.014171 0
0.12 -0.014171 0
0.116667 -0.014171 0
0.113333 -0.014171 0
0.11 -0.014171 0
0.106667 -0.014171 0
0.103333 -0.014171 0
0.1 -0.014171 0
0.0966667 -0.014171 0
0.0933333 -0.014171 0
0.09 -0.014171 0
0.0866667 -0.014171 0
0.0833333 -0.014171 0
0.08 -0.014171 0
0.0766667 -0.014171 0
0.0733333 -0.014171 0
0.07 -0.014171 0
0.0666667 -0.014171 0
0.0633333 -0.014171 0
0.06 -0.014171 0
0.0566667 -0.014171 0
0.0533333 -0.014171 0
0.05 -0.014171 0
0.0466667 -0.014171 0
0.145 -0.0170577 0
0.141667 -0.0170577 0
0.138333 -0.0170577 0
0.135 -0.0170577 0
0.131667 -0.0170577 0
0.128333 -0.0170577 0
0.125 -0.0170577 0
0.121667 -0.0170577 0
0.118333 -0.0170577 0
0.115 -0.0170577 0
0.111667 -0.0170577 0
0.108333 -0.0170577 0
0.105 -0.0170577 0
0.101667 -0.0170577 0
0.0983333 -0.0170577 0
0.095 -0.0170577 0
0.0916667 -0.0170577 0
0.0883333 -0.0170577 0
0.085 -0.0170577 0
0.0816667 -0.0170577 0
0.0783333 -0.0170577 0
0.075 -0.0170577 0
0.0716667 -0.0170577 0
0.0683333 -0.0170577 0
0.065 -0.0170577 0
0.0616667 -0.0170577 0
0.0583333 -0.0170577 0
0.055 -0.0170577 0
0.0516667 -0.0170577 0
0.0483333 -0.0170577 0
0.045 -0.0170577 0
0.143333 -0.0199445 0
0.14 -0.0199445 0
0.136667 -0.0199445 0
0.133333 -0.0199445 0
0.13 -0.0199445 0
0.126667 -0.0199445 0
0.123333 -0.0199445 0
0.12 -0.0199445 0
0.116667 -0.0199445 0
0.113333 -0.0199445 0
0.11 -0.0199445 0
0.106667 -0.0199445 0
0.103333 -0.0199445 0
0.1 -0.0199445 0
0.0966667 -0.0199445 0
0.0933333 -0.0199445 0
0.09 -0.0199445 0
0.0866667 -0.0199445 0
0.0833333 -0.0199445 0
0.08 -0.0199445 0
0.0766667 -0.0199445 0
0.0733333 -0.0199445 0
0.07 -0.0199445 0
0.0666667 -0.0199445 0
0.0633333 -0.0199445 0
0.06 -0.0199445 0
0.0566667 -0.0199445 0
0.0533333 -0.0199445 0
0.05 -0.0199445 0
0.0466667 -0.0199445 0
0.0433333 -0.0199445 0
0.141667 -0.0228312 0
0.138333 -0.0228312 0
0.135 -0.0228312 0
0.131667 -0.0228312 0
0.128333 -0.0228312 0
0.125 -0.0228312 0
0.121667 -0.0228312 0
0.118333 -0.0228312 0
0.115 -0.0228312 0
0.111667 -0.0228312 0
0.108333 -0.0228312 0
0.105 -0.0228312 0
0.101667 -0.0228312 0
0.0983333 -0.0228312 0
0.095 -0.0228312 0
0.0916667 -0.0228312 0
0.0883333 -0.0228312 0
0.085 -0.0228312 0
0.0816667 -0.0228312 0
0.0783333 -0.0228312 0
0.075 -0.0228312 0
0.0716667 -0.0228312 0
0.0683333 -0.0228312 0
0.065 -0.0228312 0
0.0616667 -0.0228312 0
0.0583333 -0.0228312 0
0.055 -0.0228312 0
0.0516667 -0.0228312 0
0.0483333 -0.0228312 0
0.045 -0.0228312 0
0.0416667 -0.0228312 0
0.14 -0.025718 0
0.136667 -0.025718 0
0.133333 -0.025718 0
0.13 -0.025718 0
0.126667 -0.025718 0
0.123333 -0.025718 0
0.12 -0.025718 0
0.116667 -0.025718 0
0.113333 -0.025718 0
0.11 -0.025718 0
0.106667 -0.025718 0
0.103333 -0.025718 0
0.1 -0.025718 0
0.0966667 -0.025718 0
0.0933333 -0.025718 0
0.09 -0.025718 0
0.0866667 -0.025718 0
0.0833333 -0.025718 0
0.08 -0.025718 0
0.0766667 -0.025718 0
0.0733333 -0.025718 0
0.07 -0.025718 0
0.0666667 -0.025718 0
0.0633333 -0.025718 0
0.06 -0.025718 0
0.0566667 -0.025718 0
0.0533333 -0.025718 0
0.05 -0.025718 0
0.0466667 -0.025718 0
0.0433333 -0.025718 0
0.04 -0.025718 0
0.138333 -0.0286047 0
0.135 -0.0286047 0
0.131667 -0.0286047 0
0.128333 -0.0286047 0
0.125 -0.0286047 0
0.121667 -0.0286047 0
0.118333 -0.0286047 0
0.115 -0.0286047 0
0.111667 -0.0286047 0
0.108333 -0.0286047 0
0.105 -0.0286047 0
0.101667 -0.0286047 0
0.0983333 -0.0286047 0
0.095 -0.0286047 0
0.0916667 -0.0286047 0
0.0883333 -0.0286047 0
0.085 -0.0286047 0
0.0816667 -0.0286047 0
0.0783333 -0.0286047 0
0.075 -0.0286047 0
0.0716667 -0.0286047 0
0.0683333 -0.0286047 0
0.065 -0.0286047 0
0.0616667 -0.0286047 0
0.0583333 -0.0286047 0
0.055 -0.0286047 0
0.0516667 -0.0286047 0
0.0483333 -0.0286047 0
0.045 -0.0286047 0
0.0416667 -0.0286047 0
0.0383333 -0.0286047 0
0.136667 -0.0314915 0
0.133333 -0.0314915 0
0.13 -0.0314915 0
0.126667 -0.0314915 0
0.123333 -0.0314915 0
0.12 -0.0314915 0
0.116667 -0.0314915 0
0.113333 -0.0314915 0
0.11 -0.0314915 0
0.106667 -0.0314915 0
0.103333 -0.0314915 0
0.1 -0.0314915 0
0.0966667 -0.0314915 0
0.0933333 -0.0314915 0
0.09 -0.0314915 0
0.0866667 -0.0314915 0
0.0833333 -0.0314915 0
0.08 -0.0314915 0
0.0766667 -0.0314915 0
0.0733333 -0.0314915 0
0.07 -0.0314915 0
0.0666667 -0.0314915 0
0.0633333 -0.0314915 0
0.06 -0.0314915 0
0.0566667 -0.0314915 0
0.0533333 -0.0314915 0
0.05 -0.0314915 0
0.0466667 -0.0314915 0
0.0433333 -0.0314915 0
0.04 -0.0314915 0
0.0366667 -0.0314915 0
0.135 -0.0343782 0
0.131667 -0.0343782 0
0.128333 -0.0343782 0
0.125 -0.0343782 0
0.121667 -0.0343782 0
0.118333 -0.0343782 0
0.115 -0.0343782 0
0.111667 -0.0343782 0
0.108333 -0.0343782 0
0.105 -0.0343782 0
0.101667 -0.0343782 0
0.0983333 -0.0343782 0
0.095 -0.0343782 0
0.0916667 -0.0343782 0
0.0883333 -0.0343782 0
0.085 -0.0343782 0
0.0816667 -0.0343782 0
0.0783333 -0.0343782 0
0.075 -0.0343782 0
0.0716667 -0.0343782 0
0.0683333 -0.0343782 0
0.065 -0.0343782 0
0.0616667 -0.0343782 0
0.0583333 -0.0343782 0
0.055 -0.0343782 0
0.0516667 -0.0343782 0
0.0483333 -0.0343782 0
0.045 -0.0343782 0
0.0416667 -0.0343782 0
0.0383333 -0.0343782 0
0.035 -0.0343782 0
0.133333 -0.037265 0
0.13 -0.037265 0
0.126667 -0.037265 0
0.123333 -0.037265 0
0.12 -0.037265 0
0.116667 -0.037265 0
0.113333 -0.037265 0
0.11 -0.037265 0
0.106667 -0.037265 0
0.103333 -0.037265 0
0.1 -0.037265 0
0.0966667 -0.037265 0
0.0933333 -0.037265 0
0.09 -0.037265 0
0.0866667 -0.037265 0
0.0833333 -0.037265 0
0.08 -0.037265 0
0.0766667 -0.037265 0
0.0733333 -0.037265 0
0.07 -0.037265 0
0.0666667 -0.037265 0
0.0633333 -0.037265 0
0.06 -0.037265 0
0.0566667 -0.037265 0
0.0533333 -0.037265 0
0.05 -0.037265 0
0.0466667 -0.037265 0
0.0433333 -0.037265 0
0.04 -0.037265 0
0.0366667 -0.037265 0
0.0333333 -0.037265 0
0.131667 -0.0401517 0
0.128333 -0.0401517 0
0.125 -0.0401517 0
0.121667 -0.0401517 0
0.118333 -0.0401517 0
0.115 -0.0401517 0
0.111667 -0.0401517 0
0.108333 -0.0401517 0
0.105 -0.0401517 0
0.101667 -0.0401517 0
0.0983333 -0.0401517 0
0.095 -0.0401517 0
0.0916667 -0.0401517 0
0.0883333 -0.0401517 0
0.085 -0.0401517 0
0.0816667 -0.0401517 0
0.0783333 -0.0401517 0
0.075 -0.0401517 0
0.0716667 -0.0401517 0
0.0683333 -0.0401517 0
0.065 -0.0401517 0
0.0616667 -0.0401517 0
0.0583333 -0.0401517 0
0.055 -0.0401517 0
0.0516667 -0.0401517 0
0.0483333 -0.0401517 0
0.045 -0.0401517 0
0.0416667 -0.0401517 0
0.0383333 -0.0401517 0
0.035 -0.0401517 0
0.0316667 -0.0401517 0
0.13 -0.0430385 0
0.126667 -0.0430385 0
0.123333 -0.0430385 0
0.12 -0.0430385 0
0.116667 -0.0430385 0
0.113333 -0.0430385 0
0.11 -0.0430385 0
0.106667 -0.0430385 0
0.103333 -0.0430385 0
0.1 -0.0430385 0
0.0966667 -0.0430385 0
0.0933333 -0.0430385 0
0.09 -0.0430385 0
0.0866667 -0.0430385 0
0.0833333 -0.0430385 0
0.08 -0.0430385 0
0.0766667 -0.0430385 0
0.0733333 -0.0430385 0
0.07 -0.0430385 0
0.0666667 -0.0430385 0
0.0633333 -0.0430385 0
0.06 -0.0430385 0
0.0566667 -0.0430385 0
0.0533333 -0.0430385 0
0.05 -0.0430385 0
0.0466667 -0.0430385 0
0.0433333 -0.0430385 0
0.04 -0.0430385 0
0.0366667 -0.0430385 0
0.0333333 -0.0430385 0
0.03 -0.0430385 0
0.128333 -0.0459252 0
0.125 -0.0459252 0
0.121667 -0.0459252 0
0.118333 -0.0459252 0
0.115 -0.0459252 0
0.111667 -0.0459252 0
0.108333 -0.0459252 0
0.105 -0.0459252 0
0.101667 -0.0459252 0
0.0983333 -0.0459252 0
0.095 -0.0459252 0
0.0916667 -0.0459252 0
0.0883333 -0.0459252 0
0.085 -0.0459252 0
0.0816667 -0.0459252 0
0.0783333 -0.0459252 0
0.075 -0.0459252 0
0.0716667 -0.0459252 0
0.0683333 -0.0459252 0
0.065 -0.0459252 0
0.0616667 -0.0459252 0
0.0583333 -0.0459252 0
0.055 -0.0459252 0
0.0516667 -0.0459252 0
0.0483333 -0.0459252 0
0.045 -0.0459252 0
0.0416667 -0.0459252 0
0.0383333 -0.0459252 0
0.035 -0.0459252 0
0.0316667 -0.0459252 0
0.0283333 -0.0459252 0
0.126667 -0.048812 0
0.123333 -0.048812 0
0.12 -0.048812 0
0.116667 -0.048812 0
0.113333 -0.048812 0
0.11 -0.048812 0
0.106667 -0.048812 0
0.103333 -0.048812 0
0.1 -0.048812 0
0.0966667 -0.048812 0
0.0933333 -0.048812 0
0.09 -0.048812 0
0.0866667 -0.048812 0
0.0833333 -0.048812 0
0.08 -0.048812 0
0.0766667 -0.048812 0
0.0733333 -0.048812 0
0.07 -0.048812 0
0.0666667 -0.048812 0
0.0633333 -0.048812 0
0.06 -0.048812 0
0.0566667 -0.048812 0
0.0533333 -0.048812 0
0.05 -0.048812 0
0.0466667 -0.048812 0
0.0433333 -0.048812 0
0.04 -0.048812 0
0.0366667 -0.048812 0
0.0333333 -0.048812 0
0.03 -0.048812 0
0.0266667 -0.048812 0
0.125 -0.0516987 0
0.121667 -0.0516987 0
0.118333 -0.0516987 0
0.115 -0.0516987 0
0.111667 -0.0516987 0
0.108333 -0.0516987 0
[...]
POINT_DATA 961
SCALARS Temp float 1
LOOKUP_TABLE default
549.733
507.397
468.685
434.226
404.134
378.342
356.644
338.729
324.211
312.666
303.658
296.761
291.585
287.782
285.056
283.17
281.939
281.238
280.993
281.183
281.842
283.056
284.964
287.761
291.692
297.052
304.176
313.425
325.177
339.82
357.899
507.397
465.161
427.271
393.86
364.939
340.365
319.867
303.086
289.603
278.97
270.742
264.498
259.854
256.476
254.089
252.474
251.469
250.97
250.927
251.345
252.284
253.859
256.24
259.652
264.375
270.731
279.078
289.798
303.277
319.897
339.82
468.685
427.271
390.403
358.152
330.443
307.065
287.699
271.95
259.377
249.524
241.947
236.233
232.011
228.967
226.843
225.441
224.62
224.296
224.443
225.088
226.317
228.27
231.146
235.2
240.733
248.094
257.655
269.803
284.91
303.277
325.177
434.226
393.86
358.152
327.109
300.593
278.345
260.01
245.17
233.376
224.172
217.123
211.828
207.936
205.149
203.229
201.995
201.328
201.163
201.492
202.366
203.891
206.234
209.618
214.318
220.659
229.002
239.727
253.212
269.803
289.798
313.425
404.134
364.939
330.443
300.593
275.206
253.988
236.561
222.499
211.353
202.675
196.044
191.076
187.435
184.844
183.081
181.984
181.449
181.43
181.937
183.04
184.867
187.602
191.49
196.825
203.946
213.219
225.024
239.727
257.655
279.078
304.176
378.342
340.365
307.065
278.345
253.988
233.677
217.027
203.612
192.992
184.731
178.424
173.704
170.253
167.811
166.171
165.186
164.769
164.888
165.569
166.899
169.024
172.145
176.521
182.461
190.31
200.439
213.219
229.002
248.094
270.731
297.052
356.644
319.867
287.699
260.01
236.561
217.027
201.024
188.135
177.93
169.992
163.93
159.396
156.088
153.759
152.216
151.328
151.017
151.267
152.118
153.669
156.081
159.57
164.406
170.906
179.418
190.31
203.945
220.659
240.733
264.375
291.692
338.729
303.087
271.95
245.17
222.499
203.612
188.135
175.661
165.777
158.084
152.206
147.81
144.608
142.366
140.903
140.098
139.886
140.26
141.273
143.035
145.719
149.549
154.806
161.808
170.906
182.461
196.825
214.318
235.2
259.652
287.761
324.211
289.603
259.377
233.376
211.353
192.992
177.93
165.777
156.138
148.627
142.885
138.591
135.469
133.295
131.9
131.17
131.048
131.539
132.704
134.663
137.595
141.734
147.364
154.806
164.406
176.521
191.49
209.618
231.146
256.24
284.964
312.666
278.97
249.524
224.172
202.675
184.731
169.992
158.084
148.627
141.25
135.608
131.39
128.33
126.213
124.876
124.213
124.176
124.775
126.079
128.216
131.371
135.782
141.734
149.549
159.57
172.145
187.602
206.234
228.27
253.859
283.056
303.658
270.742
241.947
217.123
196.044
178.424
163.93
152.206
142.885
135.608
130.041
125.882
122.872
120.802
119.517
118.916
118.957
119.655
121.085
123.379
126.728
131.371
137.595
145.719
156.081
169.024
184.867
203.891
226.317
252.284
281.842
296.761
264.498
236.233
211.828
191.076
173.704
159.396
147.81
138.591
131.39
125.882
121.77
118.804
116.777
115.54
114.996
115.108
115.894
117.435
119.866
123.379
128.216
134.663
143.035
153.669
166.899
183.04
202.366
225.088
251.345
281.183
291.585
259.854
232.011
207.936
187.435
170.253
156.088
144.608
135.469
128.33
122.872
118.804
115.877
113.892
112.701
112.21
112.386
113.252
114.889
117.435
121.085
126.079
132.704
141.273
152.118
165.569
181.937
201.492
224.443
250.927
280.993
287.782
256.476
228.967
205.149
184.844
167.811
153.759
142.366
133.295
126.213
120.802
116.777
113.892
111.949
110.803
110.363
110.598
111.533
113.252
115.894
119.655
124.775
131.539
140.26
151.267
164.888
181.43
201.163
224.296
250.97
281.238
285.056
254.089
226.843
203.229
183.081
166.171
152.216
140.903
131.9
124.876
119.517
115.54
112.701
110.803
109.703
109.313
109.602
110.598
112.386
115.108
118.957
124.176
131.048
139.886
151.017
164.769
181.449
201.328
224.62
251.469
281.939
283.17
252.474
225.441
201.995
181.984
165.186
151.328
140.098
131.17
124.213
118.916
114.996
112.21
110.363
109.313
108.973
109.313
110.363
112.21
114.996
118.916
124.213
131.17
140.098
151.328
165.186
181.984
201.995
225.441
252.474
283.17
281.939
251.469
224.62
201.328
181.449
164.769
151.017
139.886
131.048
124.176
118.957
115.108
112.386
110.598
109.602
109.313
109.703
110.803
112.701
115.54
119.517
124.876
131.9
140.903
152.216
166.171
183.081
203.229
226.843
254.089
285.056
281.238
250.97
224.296
201.163
181.43
164.888
151.267
140.26
131.539
124.775
119.655
115.894
113.252
111.533
110.598
110.363
110.803
111.949
113.892
116.777
120.802
126.213
133.295
142.366
153.759
167.811
184.844
205.149
228.967
256.476
287.782
280.993
250.927
224.443
201.492
181.937
165.569
152.118
141.273
132.704
126.079
121.085
117.435
114.889
113.252
112.386
112.21
112.701
113.892
115.877
118.804
122.872
128.33
135.469
144.608
156.088
170.253
187.435
207.936
232.011
259.854
291.585
281.183
251.345
225.088
202.366
183.04
166.899
153.669
143.035
134.663
128.216
123.379
119.866
117.435
115.894
115.108
114.996
115.54
116.777
118.804
121.77
125.882
131.39
138.591
147.81
159.396
173.704
191.076
211.828
236.233
264.498
296.761
281.842
252.284
226.317
203.891
184.867
169.024
156.081
145.719
137.595
131.371
126.728
123.379
121.085
119.655
118.957
118.916
119.517
120.802
122.872
125.882
130.041
135.608
142.885
152.206
163.93
178.424
196.044
217.123
241.947
270.742
303.658
283.056
253.859
228.27
206.234
187.602
172.145
159.57
149.549
141.734
135.782
131.371
128.216
126.079
124.775
124.176
124.213
124.876
126.213
128.33
131.39
135.608
141.25
148.627
158.084
169.992
184.731
202.675
224.172
249.524
278.97
312.666
284.964
256.24
231.146
209.618
191.49
176.521
164.406
154.806
147.364
141.734
137.595
134.663
132.704
131.539
131.048
131.17
131.9
133.295
135.469
138.591
142.885
148.627
156.138
165.777
177.93
192.992
211.352
233.376
259.377
289.603
324.211
287.761
259.652
235.2
214.318
196.825
182.461
170.906
161.808
154.806
149.549
145.719
143.035
141.273
140.26
139.886
140.098
140.903
142.366
144.608
147.81
152.206
158.084
165.777
175.661
188.135
203.612
222.499
245.17
271.95
303.086
338.729
291.692
264.375
240.733
220.659
203.945
190.31
179.418
170.906
164.406
159.57
156.081
153.669
152.118
151.267
151.017
151.328
152.216
153.759
156.088
159.396
163.93
169.992
177.93
188.135
201.024
217.027
236.561
260.01
287.699
319.867
356.644
297.052
270.73
248.094
229.002
213.219
200.439
190.31
182.461
176.521
172.145
169.024
166.899
165.569
164.888
164.769
165.186
166.171
167.811
170.253
173.704
178.424
184.731
192.992
203.612
217.027
233.677
253.988
278.345
307.065
340.365
378.342
304.176
279.078
257.655
239.727
225.024
213.219
203.945
196.825
191.49
187.602
184.867
183.04
181.937
181.43
181.449
181.984
183.081
184.844
187.435
191.076
196.044
202.675
211.352
222.499
236.561
253.988
275.207
300.593
330.443
364.939
404.134
313.425
289.798
269.803
253.212
239.727
229.002
220.659
214.318
209.618
206.234
203.891
202.366
201.492
201.163
201.328
201.996
203.229
205.149
207.936
211.828
217.123
224.172
233.376
245.17
260.01
278.345
300.593
327.109
358.152
393.86
434.226
325.177
303.277
284.91
269.803
257.656
248.094
240.733
235.2
231.146
228.27
226.317
225.088
224.443
224.296
224.62
225.441
226.843
228.967
232.011
236.233
241.947
249.524
259.377
271.95
287.699
307.065
330.443
358.152
390.403
427.271
468.685
339.82
319.897
303.277
289.798
279.078
270.731
264.375
259.652
256.24
253.859
252.284
251.345
250.927
250.97
251.469
252.474
254.089
256.476
259.854
264.498
270.742
278.97
289.603
303.086
319.867
340.365
364.939
393.86
427.271
465.161
507.397
357.899
339.82
325.177
313.425
304.176
297.052
291.692
287.761
284.964
283.056
281.842
281.183
280.993
281.238
281.939
283.17
285.056
287.782
291.585
296.761
303.658
312.666
324.211
338.729
356.644
378.342
404.134
434.226
468.685
507.397
549.732
