# vtk DataFile Version 2.0
Unstructured Grid Example
ASCII
DATASET UNSTRUCTURED_GRID

POINTS 961 float
0.15 -0.00839746 0
0.146667 -0.00839746 0
0.143333 -0.00839746 0
0.14 -0.00839746 0
0.136667 -0.00839746 0
0.133333 -0.00839746 0
0.13 -0.00839746 0
0.126667 -0.00839746 0
0.123333 -0.00839746 0
0.12 -0.00839746 0
0.116667 -0.00839746 0
0.113333 -0.00839746 0
0.11 -0.00839746 0
0.106667 -0.00839746 0
0.103333 -0.00839746 0
0.1 -0.00839746 0
0.0966667 -0.00839746 0
0.0933333 -0.00839746 0
0.09 -0.00839746 0
0.0866667 -0.00839746 0
0.0833333 -0.00839746 0
0.08 -0.00839746 0
0.0766667 -0.00839746 0
0.0733333 -0.00839746 0
0.07 -0.00839746 0
0.0666667 -0.00839746 0
0.0633333 -0.00839746 0
0.06 -0.00839746 0
0.0566667 -0.00839746 0
0.0533333 -0.00839746 0
0.05 -0.00839746 0
0.148333 -0.0112842 0
0.145 -0.0112842 0
0.141667 -0.0112842 0
0.138333 -0.0112842 0
0.135 -0.0112842 0
0.131667 -0.0112842 0
0.128333 -0.0112842 0
0.125 -0.0112842 0
0.121667 -0.0112842 0
0.118333 -0.0112842 0
0.115 -0.0112842 0
0.111667 -0.0112842 0
0.108333 -0.0112842 0
0.105 -0.0112842 0
0.101667 -0.0112842 0
0.0983333 -0.0112842 0
0.095 -0.0112842 0
0.0916667 -0.0112842 0
0.0883333 -0.0112842 0
0.085 -0.0112842 0
0.0816667 -0.0112842 0
0.0783333 -0.0112842 0
0.075 -0.0112842 0
0.0716667 -0.0112842 0
0.0683333 -0.0112842 0
0.065 -0.0112842 0
0.0616667 -0.0112842 0
0.0583333 -0.0112842 0
0.055 -0.0112842 0
0.0516667 -0.0112842 0
0.0483333 -0.0112842 0
0.146667 -0.014171 0
0.143333 -0.014171 0
0.14 -0.014171 0
0.136667 -0.014171 0
0.133333 -0.014171 0
0.13 -0.014171 0
0.126667 -0.014171 0
0.123333 -0.014171 0
0.12 -0.014171 0
0.116667 -0.014171 0
0.113333 -0.014171 0
0.11 -0.014171 0
0.106667 -0.014171 0
0.103333 -0.014171 0
0.1 -0.014171 0
0.0966667 -0.014171 0
0.0933333 -0.014171 0
0.09 -0.014171 0
0.0866667 -0.014171 0
0.0833333 -0.014171 0
0.08 -0.014171 0
0.0766667 -0.014171 0
0.0733333 -0.014171 0
0.07 -0.014171 0
0.0666667 -0.014171 0
0.0633333 -0.014171 0
0.06 -0.014171 0
0.0566667 -0.014171 0
0.0533333 -0.014171 0
0.05 -0.014171 0
0.0466667 -0.014171 0
0.145 -0.0170577 0
0.141667 -0.0170577 0
0.138333 -0.0170577 0
0.135 -0.0170577 0
0.131667 -0.0170577 0
0.128333 -0.0170577 0
0.125 -0.0170577 0
0.121667 -0.0170577 0
0.118333 -0.0170577 0
0.115 -0.0170577 0
0.111667 -0.0170577 0
0.108333 -0.0170577 0
0.105 -0.0170577 0
0.101667 -0.0170577 0
0.0983333 -0.0170577 0
0.095 -0.0170577 0
0.0916667 -0.0170577 0
0.0883333 -0.0170577 0
0.085 -0.0170577 0
0.0816667 -0.0170577 0
0.0783333 -0.0170577 0
0.075 -0.0170577 0
0.0716667 -0.0170577 0
0.0683333 -0.0170577 0
0.065 -0.0170577 0
0.0616667 -0.0170577 0
0.0583333 -0.0170577 0
0.055 -0.0170577 0
0.0516667 -0.0170577 0
0.0483333 -0.0170577 0
0.045 -0.0170577 0
0.143333 -0.0199445 0
0.14 -0.0199445 0
0.136667 -0.0199445 0
0.133333 -0.0199445 0
0.13 -0.0199445 0
0.126667 -0.0199445 0
0.123333 -0.0199445 0
0.12 -0.0199445 0
0.116667 -0.0199445 0
0.113333 -0.0199445 0
0.11 -0.0199445 0
0.106667 -0.0199445 0
0.103333 -0.0199445 0
0.1 -0.0199445 0
0.0966667 -0.0199445 0
0.0933333 -0.0199445 0
0.09 -0.0199445 0
0.0866667 -0.0199445 0
0.0833333 -0.0199445 0
0.08 -0.0199445 0
0.0766667 -0.0199445 0
0.0733333 -0.0199445 0
0.07 -0.0199445 0
0.0666667 -0.0199445 0
0.0633333 -0.0199445 0
0.06 -0.0199445 0
0.0566667 -0.0199445 0
0.0533333 -0.0199445 0
0.05 -0.0199445 0
0.0466667 -0.0199445 0
0.0433333 -0.0199445 0
0.141667 -0.0228312 0
0.138333 -0.0228312 0
0.135 -0.0228312 0
0.131667 -0.0228312 0
0.128333 -0.0228312 0
0.125 -0.0228312 0
0.121667 -0.0228312 0
0.118333 -0.0228312 0
0.115 -0.0228312 0
0.111667 -0.0228312 0
0.108333 -0.0228312 0
0.105 -0.0228312 0
0.101667 -0.0228312 0
0.0983333 -0.0228312 0
0.095 -0.0228312 0
0.0916667 -0.0228312 0
0.0883333 -0.0228312 0
0.085 -0.0228312 0
0.0816667 -0.0228312 0
0.0783333 -0.0228312 0
0.075 -0.0228312 0
0.0716667 -0.0228312 0
0.0683333 -0.0228312 0
0.065 -0.0228312 0
0.0616667 -0.0228312 0
0.0583333 -0.0228312 0
0.055 -0.0228312 0
0.0516667 -0.0228312 0
0.0483333 -0.0228312 0
0.045 -0.0228312 0
0.0416667 -0.0228312 0
0.14 -0.025718 0
0.136667 -0.025718 0
0.133333 -0.025718 0
0.13 -0.025718 0
0.126667 -0.025718 0
0.123333 -0.025718 0
0.12 -0.025718 0
0.116667 -0.025718 0
0.113333 -0.025718 0
0.11 -0.025718 0
0.106667 -0.025718 0
0.103333 -0.025718 0
0.1 -0.025718 0
0.0966667 -0.025718 0
0.0933333 -0.025718 0
0.09 -0.025718 0
0.0866667 -0.025718 0
0.0833333 -0.025718 0
0.08 -0.025718 0
0.0766667 -0.025718 0
0.0733333 -0.025718 0
0.07 -0.025718 0
0.0666667 -0.025718 0
0.0633333 -0.025718 0
0.06 -0.025718 0
0.0566667 -0.025718 0
0.0533333 -0.025718 0
0.05 -0.025718 0
0.0466667 -0.025718 0
0.0433333 -0.025718 0
0.04 -0.025718 0
0.138333 -0.0286047 0
0.135 -0.0286047 0
0.131667 -0.0286047 0
0.128333 -0.0286047 0
0.125 -0.0286047 0
0.121667 -0.0286047 0
0.118333 -0.0286047 0
0.115 -0.0286047 0
0.111667 -0.0286047 0
0.108333 -0.0286047 0
0.105 -0.0286047 0
0.101667 -0.0286047 0
0.0983333 -0.0286047 0
0.095 -0.0286047 0
0.0916667 -0.0286047 0
0.0883333 -0.0286047 0
0.085 -0.0286047 0
0.0816667 -0.0286047 0
0.0783333 -0.0286047 0
0.075 -0.0286047 0
0.0716667 -0.0286047 0
0.0683333 -0.0286047 0
0.065 -0.0286047 0
0.0616667 -0.0286047 0
0.0583333 -0.0286047 0
0.055 -0.0286047 0
0.0516667 -0.0286047 0
0.0483333 -0.0286047 0
0.045 -0.0286047 0
0.0416667 -0.0286047 0
0.0383333 -0.0286047 0
0.136667 -0.0314915 0
0.133333 -0.0314915 0
0.13 -0.0314915 0
0.126667 -0.0314915 0
0.123333 -0.0314915 0
0.12 -0.0314915 0
0.116667 -0.0314915 0
0.113333 -0.0314915 0
0.11 -0.0314915 0
0.106667 -0.0314915 0
0.103333 -0.0314915 0
0.1 -0.0314915 0
0.0966667 -0.0314915 0
0.0933333 -0.0314915 0
0.09 -0.0314915 0
0.0866667 -0.0314915 0
0.0833333 -0.0314915 0
0.08 -0.0314915 0
0.0766667 -0.0314915 0
0.0733333 -0.0314915 0
0.07 -0.0314915 0
0.0666667 -0.0314915 0
0.0633333 -0.0314915 0
0.06 -0.0314915 0
0.0566667 -0.0314915 0
0.0533333 -0.0314915 0
0.05 -0.0314915 0
0.0466667 -0.0314915 0
0.0433333 -0.0314915 0
0.04 -0.0314915 0
0.0366667 -0.0314915 0
0.135 -0.0343782 0
0.131667 -0.0343782 0
0.128333 -0.0343782 0
0.125 -0.0343782 0
0.121667 -0.0343782 0
0.118333 -0.0343782 0
0.115 -0.0343782 0
0.111667 -0.0343782 0
0.108333 -0.0343782 0
0.105 -0.0343782 0
0.101667 -0.0343782 0
0.0983333 -0.0343782 0
0.095 -0.0343782 0
0.0916667 -0.0343782 0
0.0883333 -0.0343782 0
0.085 -0.0343782 0
0.0816667 -0.0343782 0
0.0783333 -0.0343782 0
0.075 -0.0343782 0
0.0716667 -0.0343782 0
0.0683333 -0.0343782 0
0.065 -0.0343782 0
0.0616667 -0.0343782 0
0.0583333 -0.0343782 0
0.055 -0.0343782 0
0.0516667 -0.0343782 0
0.0483333 -0.0343782 0
0.045 -0.0343782 0
0.0416667 -0.0343782 0
0.0383333 -0.0343782 0
0.035 -0.0343782 0
0.133333 -0.037265 0
0.13 -0.037265 0
0.126667 -0.037265 0
0.123333 -0.037265 0
0.12 -0.037265 0
0.116667 -0.037265 0
0.113333 -0.037265 0
0.11 -0.037265 0
0.106667 -0.037265 0
0.103333 -0.037265 0
0.1 -0.037265 0
0.0966667 -0.037265 0
0.0933333 -0.037265 0
0.09 -0.037265 0
0.0866667 -0.037265 0
0.0833333 -0.037265 0
0.08 -0.037265 0
0.0766667 -0.037265 0
0.0733333 -0.037265 0
0.07 -0.037265 0
0.0666667 -0.037265 0
0.0633333 -0.037265 0
0.06 -0.037265 0
0.0566667 -0.037265 0
0.0533333 -0.037265 0
0.05 -0.037265 0
0.0466667 -0.037265 0
0.0433333 -0.037265 0
0.04 -0.037265 0
0.0366667 -0.037265 0
0.0333333 -0.037265 0
0.131667 -0.0401517 0
0.128333 -0.0401517 0
0.125 -0.0401517 0
0.121667 -0.0401517 0
0.118333 -0.0401517 0
0.115 -0.0401517 0
0.111667 -0.0401517 0
0.108333 -0.0401517 0
0.105 -0.0401517 0
0.101667 -0.0401517 0
0.0983333 -0.0401517 0
0.095 -0.0401517 0
0.0916667 -0.0401517 0
0.0883333 -0.0401517 0
0.085 -0.0401517 0
0.0816667 -0.0401517 0
0.0783333 -0.0401517 0
0.075 -0.0401517 0
0.0716667 -0.0401517 0
0.0683333 -0.0401517 0
0.065 -0.0401517 0
0.0616667 -0.0401517 0
0.0583333 -0.0401517 0
0.055 -0.0401517 0
0.0516667 -0.0401517 0
0.0483333 -0.0401517 0
0.045 -0.0401517 0
0.0416667 -0.0401517 0
0.0383333 -0.0401517 0
0.035 -0.0401517 0
0.0316667 -0.0401517 0
0.13 -0.0430385 0
0.126667 -0.0430385 0
0.123333 -0.0430385 0
0.12 -0.0430385 0
0.116667 -0.0430385 0
0.113333 -0.0430385 0
0.11 -0.0430385 0
0.106667 -0.0430385 0
0.103333 -0.0430385 0
0.1 -0.0430385 0
0.0966667 -0.0430385 0
0.0933333 -0.0430385 0
0.09 -0.0430385 0
0.0866667 -0.0430385 0
0.0833333 -0.0430385 0
0.08 -0.0430385 0
0.0766667 -0.0430385 0
0.0733333 -0.0430385 0
0.07 -0.0430385 0
0.0666667 -0.0430385 0
0.0633333 -0.0430385 0
0.06 -0.0430385 0
0.0566667 -0.0430385 0
0.0533333 -0.0430385 0
0.05 -0.0430385 0
0.0466667 -0.0430385 0
0.0433333 -0.0430385 0
0.04 -0.0430385 0
0.0366667 -0.0430385 0
0.0333333 -0.0430385 0
0.03 -0.0430385 0
0.128333 -0.0459252 0
0.125 -0.0459252 0
0.121667 -0.0459252 0
0.118333 -0.0459252 0
0.115 -0.0459252 0
0.111667 -0.0459252 0
0.108333 -0.0459252 0
0.105 -0.0459252 0
0.101667 -0.0459252 0
0.0983333 -0.0459252 0
0.095 -0.0459252 0
0.0916667 -0.0459252 0
0.0883333 -0.0459252 0
0.085 -0.0459252 0
0.0816667 -0.0459252 0
0.0783333 -0.0459252 0
0.075 -0.0459252 0
0.0716667 -0.0459252 0
0.0683333 -0.0459252 0
0.065 -0.0459252 0
0.0616667 -0.0459252 0
0.0583333 -0.0459252 0
0.055 -0.0459252 0
0.0516667 -0.0459252 0
0.0483333 -0.0459252 0
0.045 -0.0459252 0
0.0416667 -0.0459252 0
0.0383333 -0.0459252 0
0.035 -0.0459252 0
0.0316667 -0.0459252 0
0.0283333 -0.0459252 0
0.126667 -0.048812 0
0.123333 -0.048812 0
0.12 -0.048812 0
0.116667 -0.048812 0
0.113333 -0.048812 0
0.11 -0.048812 0
0.106667 -0.048812 0
0.103333 -0.048812 0
0.1 -0.048812 0
0.0966667 -0.048812 0
0.0933333 -0.048812 0
0.09 -0.048812 0
0.0866667 -0.048812 0
0.0833333 -0.048812 0
0.08 -0.048812 0
0.0766667 -0.048812 0
0.0733333 -0.048812 0
0.07 -0.048812 0
0.0666667 -0.048812 0
0.0633333 -0.048812 0
0.06 -0.048812 0
0.0566667 -0.048812 0
0.0533333 -0.048812 0
0.05 -0.048812 0
0.0466667 -0.048812 0
0.0433333 -0.048812 0
0.04 -0.048812 0
0.0366667 -0.048812 0
0.0333333 -0.048812 0
0.03 -0.048812 0
0.0266667 -0.048812 0
0.125 -0.0516987 0
0.121667 -0.0516987 0
0.118333 -0.0516987 0
0.115 -0.0516987 0
0.111667 -0.0516987 0
0.108333 -0.0516987 0
[...]
POINT_DATA 961
SCALARS Temp float 1
LOOKUP_TABLE default
601.111
561.614
524.808
491.211
460.983
434.166
410.706
390.469
373.259
358.83
346.91
337.21
329.446
323.345
318.659
315.175
312.716
311.15
310.389
310.395
311.174
312.781
315.317
318.922
323.777
330.091
338.1
348.054
360.212
374.843
392.354
561.614
521.916
485.469
452.439
422.922
396.907
374.298
354.922
338.553
324.92
313.735
304.699
297.524
291.94
287.71
284.628
282.536
281.319
280.91
281.291
282.493
284.596
287.723
292.04
297.747
305.073
314.269
325.596
339.318
355.702
374.843
524.808
485.469
449.57
417.242
388.522
363.356
341.606
323.07
307.494
294.594
284.069
275.617
268.954
263.816
259.974
257.24
255.471
254.57
254.49
255.236
256.86
259.464
263.192
268.229
274.795
283.132
293.499
306.159
321.364
339.318
360.212
491.211
452.439
417.242
385.71
357.835
333.526
312.614
294.871
280.025
267.783
257.839
249.893
243.667
238.906
235.396
232.962
231.478
230.867
231.1
232.202
234.244
237.349
241.678
247.434
254.847
264.169
275.662
289.581
306.159
325.596
348.054
460.983
422.921
388.522
357.835
330.818
307.346
287.225
270.21
256.021
244.357
234.914
227.399
221.541
217.098
213.869
211.696
210.468
210.125
210.656
212.104
214.559
218.158
223.079
229.535
237.767
248.029
260.579
275.662
293.499
314.269
338.1
434.166
396.907
363.356
333.526
307.346
284.664
265.272
248.912
235.298
224.133
215.116
207.962
202.412
198.236
195.247
193.301
192.304
192.21
193.027
194.811
197.667
201.747
207.238
214.365
223.369
234.507
248.029
264.169
283.132
305.073
330.091
410.706
374.298
341.606
312.614
287.225
265.272
246.533
230.748
217.632
206.889
198.228
191.375
186.079
182.127
179.343
177.599
176.812
176.953
178.041
180.148
183.389
187.927
193.96
201.713
211.432
223.369
237.767
254.847
274.795
297.747
323.777
390.469
354.922
323.07
294.871
270.21
248.912
230.748
215.46
202.764
192.374
184.009
177.403
172.32
168.556
165.95
164.384
163.791
164.151
165.497
167.909
171.515
176.483
183.017
191.346
201.713
214.365
229.535
247.434
268.229
292.04
318.922
373.259
338.553
307.494
280.025
256.021
235.298
217.632
202.764
190.421
180.324
172.201
165.8
160.893
157.29
154.84
153.436
153.021
153.586
155.173
157.872
161.816
167.181
174.171
183.017
193.96
207.238
223.079
241.678
263.192
287.723
315.317
358.83
324.92
294.594
267.783
244.357
224.133
206.889
192.374
180.324
170.468
162.546
156.314
151.558
148.094
145.782
144.526
144.275
145.031
146.843
149.806
154.06
159.782
167.181
176.483
187.927
201.747
218.158
237.349
259.464
284.596
312.781
346.91
313.734
284.069
257.839
234.914
215.116
198.228
184.009
172.201
162.546
154.792
148.704
144.077
140.738
138.552
137.431
137.334
138.266
140.284
143.487
148.019
154.06
161.816
171.515
183.389
197.667
214.559
234.244
256.86
282.493
311.174
337.21
304.699
275.617
249.893
227.399
207.962
191.375
177.403
165.8
156.314
148.704
142.744
138.233
135.007
132.938
131.945
131.989
133.084
135.289
138.708
143.487
149.806
157.872
167.909
180.148
194.811
212.104
232.202
255.236
281.291
310.395
329.446
297.524
268.954
243.667
221.541
202.412
186.079
172.32
160.893
151.558
144.077
138.233
133.832
130.714
128.757
127.882
128.06
129.304
131.678
135.289
140.284
146.843
155.173
165.497
178.041
193.027
210.656
231.1
254.49
280.909
310.389
323.345
291.94
263.816
238.906
217.098
198.236
182.127
168.556
157.29
148.094
140.738
135.007
130.714
127.702
125.853
125.094
125.396
126.778
129.304
133.084
138.266
145.031
153.586
164.151
176.953
192.21
210.125
230.867
254.57
281.319
311.15
318.659
287.71
259.974
235.396
213.869
195.247
179.343
165.95
154.84
145.782
138.552
132.938
128.757
125.853
124.114
123.468
123.888
125.396
128.06
131.989
137.334
144.275
153.021
163.791
176.812
192.304
210.468
231.478
255.471
282.536
312.716
315.175
284.628
257.24
232.962
211.696
193.301
177.599
164.384
153.436
144.526
137.431
131.945
127.882
125.094
123.468
122.933
123.468
125.094
127.882
131.945
137.431
144.526
153.436
164.384
177.599
193.301
211.696
232.962
257.24
284.628
315.175
312.716
282.536
255.471
231.479
210.468
192.304
176.812
163.791
153.021
144.275
137.334
131.989
128.06
125.396
123.888
123.468
124.114
125.853
128.757
132.938
138.552
145.782
154.84
165.95
179.343
195.247
213.869
235.396
259.974
287.71
318.659
311.15
281.319
254.57
230.867
210.125
192.21
176.953
164.151
153.586
145.031
138.266
133.084
129.304
126.778
125.396
125.094
125.853
127.702
130.714
135.007
140.738
148.094
157.29
168.556
182.127
198.236
217.098
238.906
263.816
291.94
323.345
310.389
280.909
254.49
231.1
210.656
193.027
178.041
165.497
155.173
146.843
140.284
135.289
131.678
129.304
128.06
127.882
128.757
130.714
133.832
138.233
144.077
151.558
160.893
172.32
186.079
202.412
221.541
243.667
268.954
297.524
329.446
310.395
281.291
255.236
232.202
212.104
194.811
180.148
167.909
157.872
149.806
143.487
138.708
135.289
133.084
131.989
131.945
132.938
135.007
138.233
142.744
148.704
156.315
165.8
177.403
191.375
207.962
227.399
249.893
275.617
304.699
337.21
311.174
282.493
256.86
234.244
214.559
197.667
183.389
171.515
161.816
154.06
148.019
143.487
140.284
138.266
137.334
137.431
138.552
140.738
144.077
148.704
154.792
162.546
172.201
184.009
198.228
215.116
234.914
257.839
284.069
313.735
346.91
312.781
284.596
259.464
237.349
218.158
201.747
187.927
176.483
167.181
159.782
154.06
149.806
146.843
145.031
144.275
144.526
145.782
148.094
151.558
156.314
162.546
170.468
180.324
192.374
206.889
224.133
244.357
267.783
294.594
324.92
358.83
315.317
287.723
263.192
241.678
223.079
207.238
193.96
183.017
174.171
167.181
161.816
157.872
155.173
153.586
153.021
153.436
154.84
157.29
160.893
165.8
172.201
180.324
190.421
202.764
217.632
235.298
256.021
280.025
307.494
338.553
373.259
318.922
292.04
268.229
247.434
229.535
214.365
201.713
191.346
183.017
176.483
171.515
167.909
165.497
164.151
163.791
164.384
165.95
168.556
172.32
177.403
184.009
192.374
202.764
215.46
230.748
248.912
270.21
294.871
323.07
354.922
390.469
323.777
297.747
274.795
254.847
237.767
223.369
211.433
201.713
193.96
187.927
183.389
180.148
178.041
176.953
176.812
177.599
179.343
182.127
186.079
191.375
198.228
206.889
217.632
230.748
246.533
265.272
287.225
312.614
341.606
374.298
410.706
330.091
305.073
283.132
264.169
248.029
234.507
223.369
214.365
207.238
201.747
197.667
194.811
193.027
192.21
192.304
193.301
195.247
198.236
202.412
207.962
215.116
224.133
235.298
248.912
265.272
284.664
307.346
333.526
363.356
396.907
434.166
338.1
314.269
293.499
275.662
260.579
248.029
237.767
229.535
223.079
218.158
214.559
212.104
210.656
210.125
210.468
211.696
213.869
217.098
221.541
227.399
234.914
244.357
256.021
270.21
287.225
307.346
330.818
357.835
388.522
422.921
460.983
348.054
325.596
306.159
289.581
275.662
264.169
254.847
247.434
241.678
237.349
234.244
232.202
231.1
230.867
231.479
232.962
235.396
238.906
243.667
249.893
257.839
267.783
280.025
294.871
312.614
333.526
357.835
385.71
417.242
452.439
491.211
360.212
339.318
321.364
306.159
293.499
283.132
274.795
268.229
263.192
259.464
256.86
255.236
254.49
254.57
255.471
257.24
259.974
263.816
268.954
275.618
284.069
294.594
307.494
323.07
341.606
363.356
388.522
417.242
449.57
485.469
524.808
374.843
355.702
339.318
325.596
314.269
305.073
297.747
292.04
287.723
284.596
282.493
281.291
280.91
281.319
282.536
284.628
287.71
291.94
297.524
304.699
313.735
324.92
338.553
354.922
374.298
396.907
422.921
452.439
485.469
521.916
561.614
392.354
374.843
360.212
348.054
338.1
330.091
323.777
318.922
315.317
312.781
311.174
310.395
310.389
311.15
312.716
315.175
318.659
323.345
329.446
337.21
346.91
358.83
373.259
390.469
410.706
434.166
460.983
491.211
524.808
561.614
601.11
