# vtk DataFile Version 2.0
Unstructured Grid Example
ASCII
DATASET UNSTRUCTURED_GRID

POINTS 961 float
0.15 -0.00839746 0
0.146667 -0.00839746 0
0.143333 -0.00839746 0
0.14 -0.00839746 0
0.136667 -0.00839746 0
0.133333 -0.00839746 0
0.13 -0.00839746 0
0.126667 -0.00839746 0
0.123333 -0.00839746 0
0.12 -0.00839746 0
0.116667 -0.00839746 0
0.113333 -0.00839746 0
0.11 -0.00839746 0
0.106667 -0.00839746 0
0.103333 -0.00839746 0
0.1 -0.00839746 0
0.0966667 -0.00839746 0
0.0933333 -0.00839746 0
0.09 -0.00839746 0
0.0866667 -0.00839746 0
0.0833333 -0.00839746 0
0.08 -0.00839746 0
0.0766667 -0.00839746 0
0.0733333 -0.00839746 0
0.07 -0.00839746 0
0.0666667 -0.00839746 0
0.0633333 -0.00839746 0
0.06 -0.00839746 0
0.0566667 -0.00839746 0
0.0533333 -0.00839746 0
0.05 -0.00839746 0
0.148333 -0.0112842 0
0.145 -0.0112842 0
0.141667 -0.0112842 0
0.138333 -0.0112842 0
0.135 -0.0112842 0
0.131667 -0.0112842 0
0.128333 -0.0112842 0
0.125 -0.0112842 0
0.121667 -0.0112842 0
0.118333 -0.0112842 0
0.115 -0.0112842 0
0.111667 -0.0112842 0
0.108333 -0.0112842 0
0.105 -0.0112842 0
0.101667 -0.0112842 0
0.0983333 -0.0112842 0
0.095 -0.0112842 0
0.0916667 -0.0112842 0
0.0883333 -0.0112842 0
0.085 -0.0112842 0
0.0816667 -0.0112842 0
0.0783333 -0.0112842 0
0.075 -0.0112842 0
0.0716667 -0.0112842 0
0.0683333 -0.0112842 0
0.065 -0.0112842 0
0.0616667 -0.0112842 0
0.0583333 -0.0112842 0
0.055 -0.0112842 0
0.0516667 -0.0112842 0
0.0483333 -0.0112842 0
0.146667 -0.014171 0
0.143333 -0.014171 0
0.14 -0.014171 0
0.136667 -0.014171 0
0.133333 -0.014171 0
0.13 -0.014171 0
0.126667 -0.014171 0
0.123333 -0.014171 0
0.12 -0.014171 0
0.116667 -0.014171 0
0.113333 -0.014171 0
0.11 -0.014171 0
0.106667 -0.014171 0
0.103333 -0.014171 0
0.1 -0.014171 0
0.0966667 -0.014171 0
0.0933333 -0.014171 0
0.09 -0.014171 0
0.0866667 -0.014171 0
0.0833333 -0.014171 0
0.08 -0.014171 0
0.0766667 -0.014171 0
0.0733333 -0.014171 0
0.07 -0.014171 0
0.0666667 -0.014171 0
0.0633333 -0.014171 0
0.06 -0.014171 0
0.0566667 -0.014171 0
0.0533333 -0.014171 0
0.05 -0.014171 0
0.0466667 -0.014171 0
0.145 -0.0170577 0
0.141667 -0.0170577 0
0.138333 -0.0170577 0
0.135 -0.0170577 0
0.131667 -0.0170577 0
0.128333 -0.0170577 0
0.125 -0.0170577 0
0.121667 -0.0170577 0
0.118333 -0.0170577 0
0.115 -0.0170577 0
0.111667 -0.0170577 0
0.108333 -0.0170577 0
0.105 -0.0170577 0
0.101667 -0.0170577 0
0.0983333 -0.0170577 0
0.095 -0.0170577 0
0.0916667 -0.0170577 0
0.0883333 -0.0170577 0
0.085 -0.0170577 0
0.0816667 -0.0170577 0
0.0783333 -0.0170577 0
0.075 -0.0170577 0
0.0716667 -0.0170577 0
0.0683333 -0.0170577 0
0.065 -0.0170577 0
0.0616667 -0.0170577 0
0.0583333 -0.0170577 0
0.055 -0.0170577 0
0.0516667 -0.0170577 0
0.0483333 -0.0170577 0
0.045 -0.0170577 0
0.143333 -0.0199445 0
0.14 -0.0199445 0
0.136667 -0.0199445 0
0.133333 -0.0199445 0
0.13 -0.0199445 0
0.126667 -0.0199445 0
0.123333 -0.0199445 0
0.12 -0.0199445 0
0.116667 -0.0199445 0
0.113333 -0.0199445 0
0.11 -0.0199445 0
0.106667 -0.0199445 0
0.103333 -0.0199445 0
0.1 -0.0199445 0
0.0966667 -0.0199445 0
0.0933333 -0.0199445 0
0.09 -0.0199445 0
0.0866667 -0.0199445 0
0.0833333 -0.0199445 0
0.08 -0.0199445 0
0.0766667 -0.0199445 0
0.0733333 -0.0199445 0
0.07 -0.0199445 0
0.0666667 -0.0199445 0
0.0633333 -0.0199445 0
0.06 -0.0199445 0
0.0566667 -0.0199445 0
0.0533333 -0.0199445 0
0.05 -0.0199445 0
0.0466667 -0.0199445 0
0.0433333 -0.0199445 0
0.141667 -0.0228312 0
0.138333 -0.0228312 0
0.135 -0.0228312 0
0.131667 -0.0228312 0
0.128333 -0.0228312 0
0.125 -0.0228312 0
0.121667 -0.0228312 0
0.118333 -0.0228312 0
0.115 -0.0228312 0
0.111667 -0.0228312 0
0.108333 -0.0228312 0
0.105 -0.0228312 0
0.101667 -0.0228312 0
0.0983333 -0.0228312 0
0.095 -0.0228312 0
0.0916667 -0.0228312 0
0.0883333 -0.0228312 0
0.085 -0.0228312 0
0.0816667 -0.0228312 0
0.0783333 -0.0228312 0
0.075 -0.0228312 0
0.0716667 -0.0228312 0
0.0683333 -0.0228312 0
0.065 -0.0228312 0
0.0616667 -0.0228312 0
0.0583333 -0.0228312 0
0.055 -0.0228312 0
0.0516667 -0.0228312 0
0.0483333 -0.0228312 0
0.045 -0.0228312 0
0.0416667 -0.0228312 0
0.14 -0.025718 0
0.136667 -0.025718 0
0.133333 -0.025718 0
0.13 -0.025718 0
0.126667 -0.025718 0
0.123333 -0.025718 0
0.12 -0.025718 0
0.116667 -0.025718 0
0.113333 -0.025718 0
0.11 -0.025718 0
0.106667 -0.025718 0
0.103333 -0.025718 0
0.1 -0.025718 0
0.0966667 -0.025718 0
0.0933333 -0.025718 0
0.09 -0.025718 0
0.0866667 -0.025718 0
0.0833333 -0.025718 0
0.08 -0.025718 0
0.0766667 -0.025718 0
0.0733333 -0.025718 0
0.07 -0.025718 0
0.0666667 -0.025718 0
0.0633333 -0.025718 0
0.06 -0.025718 0
0.0566667 -0.025718 0
0.0533333 -0.025718 0
0.05 -0.025718 0
0.0466667 -0.025718 0
0.0433333 -0.025718 0
0.04 -0.025718 0
0.138333 -0.0286047 0
0.135 -0.0286047 0
0.131667 -0.0286047 0
0.128333 -0.0286047 0
0.125 -0.0286047 0
0.121667 -0.0286047 0
0.118333 -0.0286047 0
0.115 -0.0286047 0
0.111667 -0.0286047 0
0.108333 -0.0286047 0
0.105 -0.0286047 0
0.101667 -0.0286047 0
0.0983333 -0.0286047 0
0.095 -0.0286047 0
0.0916667 -0.0286047 0
0.0883333 -0.0286047 0
0.085 -0.0286047 0
0.0816667 -0.0286047 0
0.0783333 -0.0286047 0
0.075 -0.0286047 0
0.0716667 -0.0286047 0
0.0683333 -0.0286047 0
0.065 -0.0286047 0
0.0616667 -0.0286047 0
0.0583333 -0.0286047 0
0.055 -0.0286047 0
0.0516667 -0.0286047 0
0.0483333 -0.0286047 0
0.045 -0.0286047 0
0.0416667 -0.0286047 0
0.0383333 -0.0286047 0
0.136667 -0.0314915 0
0.133333 -0.0314915 0
0.13 -0.0314915 0
0.126667 -0.0314915 0
0.123333 -0.0314915 0
0.12 -0.0314915 0
0.116667 -0.0314915 0
0.113333 -0.0314915 0
0.11 -0.0314915 0
0.106667 -0.0314915 0
0.103333 -0.0314915 0
0.1 -0.0314915 0
0.0966667 -0.0314915 0
0.0933333 -0.0314915 0
0.09 -0.0314915 0
0.0866667 -0.0314915 0
0.0833333 -0.0314915 0
0.08 -0.0314915 0
0.0766667 -0.0314915 0
0.0733333 -0.0314915 0
0.07 -0.0314915 0
0.0666667 -0.0314915 0
0.0633333 -0.0314915 0
0.06 -0.0314915 0
0.0566667 -0.0314915 0
0.0533333 -0.0314915 0
0.05 -0.0314915 0
0.0466667 -0.0314915 0
0.0433333 -0.0314915 0
0.04 -0.0314915 0
0.0366667 -0.0314915 0
0.135 -0.0343782 0
0.131667 -0.0343782 0
0.128333 -0.0343782 0
0.125 -0.0343782 0
0.121667 -0.0343782 0
0.118333 -0.0343782 0
0.115 -0.0343782 0
0.111667 -0.0343782 0
0.108333 -0.0343782 0
0.105 -0.0343782 0
0.101667 -0.0343782 0
0.0983333 -0.0343782 0
0.095 -0.0343782 0
0.0916667 -0.0343782 0
0.0883333 -0.0343782 0
0.085 -0.0343782 0
0.0816667 -0.0343782 0
0.0783333 -0.0343782 0
0.075 -0.0343782 0
0.0716667 -0.0343782 0
0.0683333 -0.0343782 0
0.065 -0.0343782 0
0.0616667 -0.0343782 0
0.0583333 -0.0343782 0
0.055 -0.0343782 0
0.0516667 -0.0343782 0
0.0483333 -0.0343782 0
0.045 -0.0343782 0
0.0416667 -0.0343782 0
0.0383333 -0.0343782 0
0.035 -0.0343782 0
0.133333 -0.037265 0
0.13 -0.037265 0
0.126667 -0.037265 0
0.123333 -0.037265 0
0.12 -0.037265 0
0.116667 -0.037265 0
0.113333 -0.037265 0
0.11 -0.037265 0
0.106667 -0.037265 0
0.103333 -0.037265 0
0.1 -0.037265 0
0.0966667 -0.037265 0
0.0933333 -0.037265 0
0.09 -0.037265 0
0.0866667 -0.037265 0
0.0833333 -0.037265 0
0.08 -0.037265 0
0.0766667 -0.037265 0
0.0733333 -0.037265 0
0.07 -0.037265 0
0.0666667 -0.037265 0
0.0633333 -0.037265 0
0.06 -0.037265 0
0.0566667 -0.037265 0
0.0533333 -0.037265 0
0.05 -0.037265 0
0.0466667 -0.037265 0
0.0433333 -0.037265 0
0.04 -0.037265 0
0.0366667 -0.037265 0
0.0333333 -0.037265 0
0.131667 -0.0401517 0
0.128333 -0.0401517 0
0.125 -0.0401517 0
0.121667 -0.0401517 0
0.118333 -0.0401517 0
0.115 -0.0401517 0
0.111667 -0.0401517 0
0.108333 -0.0401517 0
0.105 -0.0401517 0
0.101667 -0.0401517 0
0.0983333 -0.0401517 0
0.095 -0.0401517 0
0.0916667 -0.0401517 0
0.0883333 -0.0401517 0
0.085 -0.0401517 0
0.0816667 -0.0401517 0
0.0783333 -0.0401517 0
0.075 -0.0401517 0
0.0716667 -0.0401517 0
0.0683333 -0.0401517 0
0.065 -0.0401517 0
0.0616667 -0.0401517 0
0.0583333 -0.0401517 0
0.055 -0.0401517 0
0.0516667 -0.0401517 0
0.0483333 -0.0401517 0
0.045 -0.0401517 0
0.0416667 -0.0401517 0
0.0383333 -0.0401517 0
0.035 -0.0401517 0
0.0316667 -0.0401517 0
0.13 -0.0430385 0
0.126667 -0.0430385 0
0.123333 -0.0430385 0
0.12 -0.0430385 0
0.116667 -0.0430385 0
0.113333 -0.0430385 0
0.11 -0.0430385 0
0.106667 -0.0430385 0
0.103333 -0.0430385 0
0.1 -0.0430385 0
0.0966667 -0.0430385 0
0.0933333 -0.0430385 0
0.09 -0.0430385 0
0.0866667 -0.0430385 0
0.0833333 -0.0430385 0
0.08 -0.0430385 0
0.0766667 -0.0430385 0
0.0733333 -0.0430385 0
0.07 -0.0430385 0
0.0666667 -0.0430385 0
0.0633333 -0.0430385 0
0.06 -0.0430385 0
0.0566667 -0.0430385 0
0.0533333 -0.0430385 0
0.05 -0.0430385 0
0.0466667 -0.0430385 0
0.0433333 -0.0430385 0
0.04 -0.0430385 0
0.0366667 -0.0430385 0
0.0333333 -0.0430385 0
0.03 -0.0430385 0
0.128333 -0.0459252 0
0.125 -0.0459252 0
0.121667 -0.0459252 0
0.118333 -0.0459252 0
0.115 -0.0459252 0
0.111667 -0.0459252 0
0.108333 -0.0459252 0
0.105 -0.0459252 0
0.101667 -0.0459252 0
0.0983333 -0.0459252 0
0.095 -0.0459252 0
0.0916667 -0.0459252 0
0.0883333 -0.0459252 0
0.085 -0.0459252 0
0.0816667 -0.0459252 0
0.0783333 -0.0459252 0
0.075 -0.0459252 0
0.0716667 -0.0459252 0
0.0683333 -0.0459252 0
0.065 -0.0459252 0
0.0616667 -0.0459252 0
0.0583333 -0.0459252 0
0.055 -0.0459252 0
0.0516667 -0.0459252 0
0.0483333 -0.0459252 0
0.045 -0.0459252 0
0.0416667 -0.0459252 0
0.0383333 -0.0459252 0
0.035 -0.0459252 0
0.0316667 -0.0459252 0
0.0283333 -0.0459252 0
0.126667 -0.048812 0
0.123333 -0.048812 0
0.12 -0.048812 0
0.116667 -0.048812 0
0.113333 -0.048812 0
0.11 -0.048812 0
0.106667 -0.048812 0
0.103333 -0.048812 0
0.1 -0.048812 0
0.0966667 -0.048812 0
0.0933333 -0.048812 0
0.09 -0.048812 0
0.0866667 -0.048812 0
0.0833333 -0.048812 0
0.08 -0.048812 0
0.0766667 -0.048812 0
0.0733333 -0.048812 0
0.07 -0.048812 0
0.0666667 -0.048812 0
0.0633333 -0.048812 0
0.06 -0.048812 0
0.0566667 -0.048812 0
0.0533333 -0.048812 0
0.05 -0.048812 0
0.0466667 -0.048812 0
0.0433333 -0.048812 0
0.04 -0.048812 0
0.0366667 -0.048812 0
0.0333333 -0.048812 0
0.03 -0.048812 0
0.0266667 -0.048812 0
0.125 -0.0516987 0
0.121667 -0.0516987 0
0.118333 -0.0516987 0
0.115 -0.0516987 0
0.111667 -0.0516987 0
0.108333 -0.0516987 0
[...]
POINT_DATA 961
SCALARS Temp float 1
LOOKUP_TABLE default
607.065
567.91
531.352
497.897
467.707
440.833
417.232
396.786
379.317
364.595
352.366
342.357
334.295
327.919
322.99
319.299
316.674
314.983
314.139
314.101
314.874
316.508
319.097
322.777
327.717
334.119
342.208
352.221
364.406
379.021
396.461
567.91
528.525
492.28
459.344
429.817
403.7
380.91
361.293
344.638
330.694
319.188
309.838
302.366
296.515
292.051
288.776
286.533
285.207
284.732
285.087
286.301
288.445
291.639
296.039
301.837
309.252
318.523
329.898
343.63
359.975
379.021
531.352
492.28
456.537
424.255
395.481
370.172
348.208
329.404
313.524
300.301
289.45
280.686
273.731
268.335
264.272
261.36
259.455
258.463
258.334
259.071
260.721
263.38
267.186
272.315
278.976
287.401
297.837
310.534
325.734
343.63
364.406
497.897
459.344
424.255
392.724
364.756
340.271
319.118
301.088
285.926
273.356
263.087
254.834
248.326
243.319
239.601
237.004
235.402
234.715
234.915
236.023
238.106
241.278
245.695
251.55
259.062
268.471
280.028
293.975
310.534
329.898
352.221
467.707
429.817
395.481
364.756
337.611
313.937
293.557
276.243
261.732
249.74
239.978
232.164
226.036
221.36
217.939
215.618
214.286
213.883
214.397
215.865
218.373
222.051
227.069
233.631
241.964
252.313
264.923
280.028
297.837
318.523
342.208
440.833
403.7
370.172
340.271
313.937
291.035
271.371
254.707
240.772
229.284
219.956
212.514
206.706
202.311
199.144
197.065
195.979
195.841
196.654
198.472
201.393
205.562
211.16
218.397
227.507
238.733
252.313
268.471
287.401
309.252
334.119
417.232
380.91
348.208
319.118
293.557
271.371
252.356
236.267
222.834
211.777
202.816
195.686
190.147
185.99
183.042
181.178
180.317
180.427
181.525
183.677
186.995
191.633
197.779
205.65
215.48
227.507
241.964
259.062
278.976
301.837
327.717
396.786
361.293
329.404
301.088
276.243
254.707
236.267
220.679
207.675
196.981
188.328
181.459
176.145
172.19
169.434
167.762
167.107
167.449
168.816
171.286
174.979
180.057
186.714
195.167
205.65
218.397
233.631
251.55
272.315
296.039
322.777
379.317
344.638
313.524
285.926
261.732
240.772
222.834
207.675
195.034
184.645
176.247
169.595
164.472
160.69
158.102
156.605
156.14
156.699
158.319
161.087
165.129
170.613
177.735
186.714
197.779
211.16
227.069
245.695
267.186
291.639
319.097
364.595
330.694
300.301
273.356
249.74
229.284
211.777
196.981
184.645
174.51
166.325
159.857
154.895
151.265
148.828
147.49
147.202
147.962
149.818
152.86
157.222
163.073
170.613
180.057
191.633
205.562
222.051
241.278
263.38
288.445
316.508
352.366
319.188
289.45
263.087
239.978
219.956
202.816
188.328
176.247
166.325
158.321
152.009
147.189
143.695
141.395
140.204
140.079
141.027
143.099
146.392
151.042
157.222
165.129
174.979
186.995
201.393
218.373
238.106
260.721
286.301
314.874
342.357
309.838
280.686
254.834
232.164
212.514
195.686
181.459
169.595
159.857
152.009
145.836
141.144
137.774
135.602
134.547
134.575
135.696
137.966
141.485
146.392
152.86
161.087
171.286
183.677
198.472
215.865
236.023
259.071
285.087
314.101
334.295
302.366
273.731
248.326
226.036
206.706
190.147
176.145
164.472
154.895
147.189
141.144
136.573
133.321
131.27
130.346
130.516
131.796
134.245
137.966
143.099
149.818
158.319
168.816
181.525
196.654
214.397
234.915
258.334
284.732
314.139
327.919
296.515
268.335
243.319
221.36
202.311
185.99
172.19
160.69
151.265
143.695
137.774
133.321
130.185
128.253
127.453
127.758
129.184
131.796
135.696
141.027
147.962
156.699
167.449
180.427
195.841
213.883
234.715
258.463
285.207
314.983
322.99
292.051
264.272
239.601
217.939
199.144
183.042
169.434
158.102
148.828
141.395
135.602
131.27
128.253
126.44
125.762
126.195
127.758
130.516
134.575
140.079
147.202
156.14
167.107
180.317
195.979
214.286
235.402
259.455
286.533
316.674
319.299
288.776
261.36
237.004
215.618
197.065
181.178
167.762
156.605
147.49
140.204
134.547
130.346
127.453
125.762
125.206
125.762
127.453
130.346
134.547
140.204
147.49
156.605
167.762
181.178
197.065
215.618
237.004
261.36
288.776
319.299
316.674
286.533
259.455
235.402
214.286
195.979
180.317
167.107
156.14
147.202
140.079
134.575
130.516
127.758
126.195
125.762
126.44
128.253
131.27
135.602
141.395
148.828
158.102
169.434
183.042
199.144
217.939
239.601
264.272
292.051
322.99
314.983
285.207
258.463
234.715
213.883
195.841
180.427
167.449
156.699
147.962
141.027
135.696
131.796
129.184
127.758
127.453
128.253
130.185
133.321
137.774
143.695
151.265
160.69
172.19
185.99
202.311
221.36
243.319
268.335
296.515
327.919
314.139
284.732
258.334
234.915
214.397
196.654
181.525
168.816
158.319
149.818
143.099
137.966
134.245
131.796
130.516
130.346
131.27
133.321
136.573
141.144
147.189
154.895
164.472
176.145
190.147
206.706
226.036
248.326
273.731
302.366
334.295
314.101
285.087
259.07
236.023
215.865
198.472
183.677
171.286
161.087
152.86
146.392
141.485
137.966
135.696
134.575
134.547
135.602
137.774
141.144
145.836
152.009
159.857
169.595
181.459
195.686
212.514
232.164
254.834
280.686
309.838
342.357
314.874
286.301
260.721
238.106
218.373
201.393
186.995
174.979
165.129
157.222
151.042
146.392
143.099
141.027
140.079
140.204
141.395
143.695
147.189
152.009
158.321
166.325
176.247
188.328
202.816
219.956
239.978
263.087
289.45
319.188
352.366
316.508
288.445
263.38
241.278
222.051
205.562
191.633
180.057
170.613
163.073
157.222
152.86
149.818
147.962
147.202
147.49
148.828
151.265
154.895
159.857
166.325
174.51
184.645
196.981
211.777
229.284
249.74
273.356
300.301
330.694
364.595
319.097
291.639
267.186
245.695
227.069
211.16
197.779
186.714
177.735
170.613
165.129
161.087
158.319
156.699
156.14
156.605
158.102
160.69
164.472
169.595
176.247
184.645
195.034
207.675
222.834
240.772
261.732
285.926
313.524
344.638
379.317
322.777
296.039
272.315
251.55
233.631
218.397
205.65
195.167
186.714
180.057
174.979
171.286
168.816
167.449
167.107
167.762
169.434
172.19
176.145
181.459
188.328
196.981
207.675
220.679
236.267
254.707
276.243
301.088
329.404
361.293
396.786
327.717
301.837
278.976
259.062
241.964
227.507
215.48
205.65
197.779
191.633
186.995
183.677
181.525
180.427
180.317
181.178
183.042
185.99
190.147
195.686
202.816
211.777
222.834
236.267
252.356
271.371
293.557
319.118
348.208
380.91
417.232
334.119
309.252
287.401
268.472
252.313
238.733
227.507
218.397
211.16
205.562
201.393
198.472
196.654
195.841
195.979
197.065
199.144
202.311
206.706
212.514
219.956
229.284
240.772
254.707
271.371
291.035
313.937
340.271
370.172
403.7
440.833
342.208
318.523
297.837
280.028
264.923
252.313
241.964
233.631
227.069
222.051
218.373
215.865
214.397
213.883
214.286
215.618
217.939
221.36
226.036
232.164
239.978
249.74
261.732
276.243
293.557
313.937
337.611
364.756
395.481
429.817
467.707
352.221
329.898
310.534
293.975
280.028
268.472
259.062
251.55
245.695
241.278
238.106
236.023
234.915
234.715
235.402
237.004
239.602
243.319
248.326
254.834
263.087
273.356
285.926
301.088
319.118
340.271
364.756
392.724
424.255
459.344
497.897
364.406
343.63
325.734
310.534
297.837
287.401
278.976
272.315
267.186
263.38
260.721
259.071
258.334
258.463
259.455
261.36
264.272
268.335
273.732
280.686
289.45
300.301
313.524
329.404
348.208
370.172
395.481
424.255
456.537
492.28
531.352
379.021
359.975
343.63
329.898
318.523
309.252
301.837
296.039
291.639
288.445
286.301
285.087
284.732
285.207
286.533
288.776
292.051
296.515
302.366
309.838
319.188
330.694
344.638
361.293
380.91
403.7
429.817
459.344
492.28
528.525
567.91
396.461
379.021
364.406
352.221
342.208
334.119
327.717
322.777
319.097
316.508
314.874
314.101
314.139
314.983
316.674
319.299
322.99
327.919
334.295
342.357
352.366
364.595
379.317
396.786
417.232
440.833
467.707
497.897
531.352
567.91
607.065
