# vtk DataFile Version 2.0
Unstructured Grid Example
ASCII
DATASET UNSTRUCTURED_GRID

POINTS 961 float
0.15 -0.00839746 0
0.146667 -0.00839746 0
0.143333 -0.00839746 0
0.14 -0.00839746 0
0.136667 -0.00839746 0
0.133333 -0.00839746 0
0.13 -0.00839746 0
0.126667 -0.00839746 0
0.123333 -0.00839746 0
0.12 -0.00839746 0
0.116667 -0.00839746 0
0.113333 -0.00839746 0
0.11 -0.00839746 0
0.106667 -0.00839746 0
0.103333 -0.00839746 0
0.1 -0.00839746 0
0.0966667 -0.00839746 0
0.0933333 -0.00839746 0
0.09 -0.00839746 0
0.0866667 -0.00839746 0
0.0833333 -0.00839746 0
0.08 -0.00839746 0
0.0766667 -0.00839746 0
0.0733333 -0.00839746 0
0.07 -0.00839746 0
0.0666667 -0.00839746 0
0.0633333 -0.00839746 0
0.06 -0.00839746 0
0.0566667 -0.00839746 0
0.0533333 -0.00839746 0
0.05 -0.00839746 0
0.148333 -0.0112842 0
0.145 -0.0112842 0
0.141667 -0.0112842 0
0.138333 -0.0112842 0
0.135 -0.0112842 0
0.131667 -0.0112842 0
0.128333 -0.0112842 0
0.125 -0.0112842 0
0.121667 -0.0112842 0
0.118333 -0.0112842 0
0.115 -0.0112842 0
0.111667 -0.0112842 0
0.108333 -0.0112842 0
0.105 -0.0112842 0
0.101667 -0.0112842 0
0.0983333 -0.0112842 0
0.095 -0.0112842 0
0.0916667 -0.0112842 0
0.0883333 -0.0112842 0
0.085 -0.0112842 0
0.0816667 -0.0112842 0
0.0783333 -0.0112842 0
0.075 -0.0112842 0
0.0716667 -0.0112842 0
0.0683333 -0.0112842 0
0.065 -0.0112842 0
0.0616667 -0.0112842 0
0.0583333 -0.0112842 0
0.055 -0.0112842 0
0.0516667 -0.0112842 0
0.0483333 -0.0112842 0
0.146667 -0.014171 0
0.143333 -0.014171 0
0.14 -0.014171 0
0.136667 -0.014171 0
0.133333 -0.014171 0
0.13 -0.014171 0
0.126667 -0.014171 0
0.123333 -0.014171 0
0.12 -0.014171 0
0.116667 -0.014171 0
0.113333 -0.014171 0
0.11 -0.014171 0
0.106667 -0.014171 0
0.103333 -0.014171 0
0.1 -0.014171 0
0.0966667 -0.014171 0
0.0933333 -0.014171 0
0.09 -0.014171 0
0.0866667 -0.014171 0
0.0833333 -0.014171 0
0.08 -0.014171 0
0.0766667 -0.014171 0
0.0733333 -0.014171 0
0.07 -0.014171 0
0.0666667 -0.014171 0
0.0633333 -0.014171 0
0.06 -0.014171 0
0.0566667 -0.014171 0
0.0533333 -0.014171 0
0.05 -0.014171 0
0.0466667 -0.014171 0
0.145 -0.0170577 0
0.141667 -0.0170577 0
0.138333 -0.0170577 0
0.135 -0.0170577 0
0.131667 -0.0170577 0
0.128333 -0.0170577 0
0.125 -0.0170577 0
0.121667 -0.0170577 0
0.118333 -0.0170577 0
0.115 -0.0170577 0
0.111667 -0.0170577 0
0.108333 -0.0170577 0
0.105 -0.0170577 0
0.101667 -0.0170577 0
0.0983333 -0.0170577 0
0.095 -0.0170577 0
0.0916667 -0.0170577 0
0.0883333 -0.0170577 0
0.085 -0.0170577 0
0.0816667 -0.0170577 0
0.0783333 -0.0170577 0
0.075 -0.0170577 0
0.0716667 -0.0170577 0
0.0683333 -0.0170577 0
0.065 -0.0170577 0
0.0616667 -0.0170577 0
0.0583333 -0.0170577 0
0.055 -0.0170577 0
0.0516667 -0.0170577 0
0.0483333 -0.0170577 0
0.045 -0.0170577 0
0.143333 -0.0199445 0
0.14 -0.0199445 0
0.136667 -0.0199445 0
0.133333 -0.0199445 0
0.13 -0.0199445 0
0.126667 -0.0199445 0
0.123333 -0.0199445 0
0.12 -0.0199445 0
0.116667 -0.0199445 0
0.113333 -0.0199445 0
0.11 -0.0199445 0
0.106667 -0.0199445 0
0.103333 -0.0199445 0
0.1 -0.0199445 0
0.0966667 -0.0199445 0
0.0933333 -0.0199445 0
0.09 -0.0199445 0
0.0866667 -0.0199445 0
0.0833333 -0.0199445 0
0.08 -0.0199445 0
0.0766667 -0.0199445 0
0.0733333 -0.0199445 0
0.07 -0.0199445 0
0.0666667 -0.0199445 0
0.0633333 -0.0199445 0
0.06 -0.0199445 0
0.0566667 -0.0199445 0
0.0533333 -0.0199445 0
0.05 -0.0199445 0
0.0466667 -0.0199445 0
0.0433333 -0.0199445 0
0.141667 -0.0228312 0
0.138333 -0.0228312 0
0.135 -0.0228312 0
0.131667 -0.0228312 0
0.128333 -0.0228312 0
0.125 -0.0228312 0
0.121667 -0.0228312 0
0.118333 -0.0228312 0
0.115 -0.0228312 0
0.111667 -0.0228312 0
0.108333 -0.0228312 0
0.105 -0.0228312 0
0.101667 -0.0228312 0
0.0983333 -0.0228312 0
0.095 -0.0228312 0
0.0916667 -0.0228312 0
0.0883333 -0.0228312 0
0.085 -0.0228312 0
0.0816667 -0.0228312 0
0.0783333 -0.0228312 0
0.075 -0.0228312 0
0.0716667 -0.0228312 0
0.0683333 -0.0228312 0
0.065 -0.0228312 0
0.0616667 -0.0228312 0
0.0583333 -0.0228312 0
0.055 -0.0228312 0
0.0516667 -0.0228312 0
0.0483333 -0.0228312 0
0.045 -0.0228312 0
0.0416667 -0.0228312 0
0.14 -0.025718 0
0.136667 -0.025718 0
0.133333 -0.025718 0
0.13 -0.025718 0
0.126667 -0.025718 0
0.123333 -0.025718 0
0.12 -0.025718 0
0.116667 -0.025718 0
0.113333 -0.025718 0
0.11 -0.025718 0
0.106667 -0.025718 0
0.103333 -0.025718 0
0.1 -0.025718 0
0.0966667 -0.025718 0
0.0933333 -0.025718 0
0.09 -0.025718 0
0.0866667 -0.025718 0
0.0833333 -0.025718 0
0.08 -0.025718 0
0.0766667 -0.025718 0
0.0733333 -0.025718 0
0.07 -0.025718 0
0.0666667 -0.025718 0
0.0633333 -0.025718 0
0.06 -0.025718 0
0.0566667 -0.025718 0
0.0533333 -0.025718 0
0.05 -0.025718 0
0.0466667 -0.025718 0
0.0433333 -0.025718 0
0.04 -0.025718 0
0.138333 -0.0286047 0
0.135 -0.0286047 0
0.131667 -0.0286047 0
0.128333 -0.0286047 0
0.125 -0.0286047 0
0.121667 -0.0286047 0
0.118333 -0.0286047 0
0.115 -0.0286047 0
0.111667 -0.0286047 0
0.108333 -0.0286047 0
0.105 -0.0286047 0
0.101667 -0.0286047 0
0.0983333 -0.0286047 0
0.095 -0.0286047 0
0.0916667 -0.0286047 0
0.0883333 -0.0286047 0
0.085 -0.0286047 0
0.0816667 -0.0286047 0
0.0783333 -0.0286047 0
0.075 -0.0286047 0
0.0716667 -0.0286047 0
0.0683333 -0.0286047 0
0.065 -0.0286047 0
0.0616667 -0.0286047 0
0.0583333 -0.0286047 0
0.055 -0.0286047 0
0.0516667 -0.0286047 0
0.0483333 -0.0286047 0
0.045 -0.0286047 0
0.0416667 -0.0286047 0
0.0383333 -0.0286047 0
0.136667 -0.0314915 0
0.133333 -0.0314915 0
0.13 -0.0314915 0
0.126667 -0.0314915 0
0.123333 -0.0314915 0
0.12 -0.0314915 0
0.116667 -0.0314915 0
0.113333 -0.0314915 0
0.11 -0.0314915 0
0.106667 -0.0314915 0
0.103333 -0.0314915 0
0.1 -0.0314915 0
0.0966667 -0.0314915 0
0.0933333 -0.0314915 0
0.09 -0.0314915 0
0.0866667 -0.0314915 0
0.0833333 -0.0314915 0
0.08 -0.0314915 0
0.0766667 -0.0314915 0
0.0733333 -0.0314915 0
0.07 -0.0314915 0
0.0666667 -0.0314915 0
0.0633333 -0.0314915 0
0.06 -0.0314915 0
0.0566667 -0.0314915 0
0.0533333 -0.0314915 0
0.05 -0.0314915 0
0.0466667 -0.0314915 0
0.0433333 -0.0314915 0
0.04 -0.0314915 0
0.0366667 -0.0314915 0
0.135 -0.0343782 0
0.131667 -0.0343782 0
0.128333 -0.0343782 0
0.125 -0.0343782 0
0.121667 -0.0343782 0
0.118333 -0.0343782 0
0.115 -0.0343782 0
0.111667 -0.0343782 0
0.108333 -0.0343782 0
0.105 -0.0343782 0
0.101667 -0.0343782 0
0.0983333 -0.0343782 0
0.095 -0.0343782 0
0.0916667 -0.0343782 0
0.0883333 -0.0343782 0
0.085 -0.0343782 0
0.0816667 -0.0343782 0
0.0783333 -0.0343782 0
0.075 -0.0343782 0
0.0716667 -0.0343782 0
0.0683333 -0.0343782 0
0.065 -0.0343782 0
0.0616667 -0.0343782 0
0.0583333 -0.0343782 0
0.055 -0.0343782 0
0.0516667 -0.0343782 0
0.0483333 -0.0343782 0
0.045 -0.0343782 0
0.0416667 -0.0343782 0
0.0383333 -0.0343782 0
0.035 -0.0343782 0
0.133333 -0.037265 0
0.13 -0.037265 0
0.126667 -0.037265 0
0.123333 -0.037265 0
0.12 -0.037265 0
0.116667 -0.037265 0
0.113333 -0.037265 0
0.11 -0.037265 0
0.106667 -0.037265 0
0.103333 -0.037265 0
0.1 -0.037265 0
0.0966667 -0.037265 0
0.0933333 -0.037265 0
0.09 -0.037265 0
0.0866667 -0.037265 0
0.0833333 -0.037265 0
0.08 -0.037265 0
0.0766667 -0.037265 0
0.0733333 -0.037265 0
0.07 -0.037265 0
0.0666667 -0.037265 0
0.0633333 -0.037265 0
0.06 -0.037265 0
0.0566667 -0.037265 0
0.0533333 -0.037265 0
0.05 -0.037265 0
0.0466667 -0.037265 0
0.0433333 -0.037265 0
0.04 -0.037265 0
0.0366667 -0.037265 0
0.0333333 -0.037265 0
0.131667 -0.0401517 0
0.128333 -0.0401517 0
0.125 -0.0401517 0
0.121667 -0.0401517 0
0.118333 -0.0401517 0
0.115 -0.0401517 0
0.111667 -0.0401517 0
0.108333 -0.0401517 0
0.105 -0.0401517 0
0.101667 -0.0401517 0
0.0983333 -0.0401517 0
0.095 -0.0401517 0
0.0916667 -0.0401517 0
0.0883333 -0.0401517 0
0.085 -0.0401517 0
0.0816667 -0.0401517 0
0.0783333 -0.0401517 0
0.075 -0.0401517 0
0.0716667 -0.0401517 0
0.0683333 -0.0401517 0
0.065 -0.0401517 0
0.0616667 -0.0401517 0
0.0583333 -0.0401517 0
0.055 -0.0401517 0
0.0516667 -0.0401517 0
0.0483333 -0.0401517 0
0.045 -0.0401517 0
0.0416667 -0.0401517 0
0.0383333 -0.0401517 0
0.035 -0.0401517 0
0.0316667 -0.0401517 0
0.13 -0.0430385 0
0.126667 -0.0430385 0
0.123333 -0.0430385 0
0.12 -0.0430385 0
0.116667 -0.0430385 0
0.113333 -0.0430385 0
0.11 -0.0430385 0
0.106667 -0.0430385 0
0.103333 -0.0430385 0
0.1 -0.0430385 0
0.0966667 -0.0430385 0
0.0933333 -0.0430385 0
0.09 -0.0430385 0
0.0866667 -0.0430385 0
0.0833333 -0.0430385 0
0.08 -0.0430385 0
0.0766667 -0.0430385 0
0.0733333 -0.0430385 0
0.07 -0.0430385 0
0.0666667 -0.0430385 0
0.0633333 -0.0430385 0
0.06 -0.0430385 0
0.0566667 -0.0430385 0
0.0533333 -0.0430385 0
0.05 -0.0430385 0
0.0466667 -0.0430385 0
0.0433333 -0.0430385 0
0.04 -0.0430385 0
0.0366667 -0.0430385 0
0.0333333 -0.0430385 0
0.03 -0.0430385 0
0.128333 -0.0459252 0
0.125 -0.0459252 0
0.121667 -0.0459252 0
0.118333 -0.0459252 0
0.115 -0.0459252 0
0.111667 -0.0459252 0
0.108333 -0.0459252 0
0.105 -0.0459252 0
0.101667 -0.0459252 0
0.0983333 -0.0459252 0
0.095 -0.0459252 0
0.0916667 -0.0459252 0
0.0883333 -0.0459252 0
0.085 -0.0459252 0
0.0816667 -0.0459252 0
0.0783333 -0.0459252 0
0.075 -0.0459252 0
0.0716667 -0.0459252 0
0.0683333 -0.0459252 0
0.065 -0.0459252 0
0.0616667 -0.0459252 0
0.0583333 -0.0459252 0
0.055 -0.0459252 0
0.0516667 -0.0459252 0
0.0483333 -0.0459252 0
0.045 -0.0459252 0
0.0416667 -0.0459252 0
0.0383333 -0.0459252 0
0.035 -0.0459252 0
0.0316667 -0.0459252 0
0.0283333 -0.0459252 0
0.126667 -0.048812 0
0.123333 -0.048812 0
0.12 -0.048812 0
0.116667 -0.048812 0
0.113333 -0.048812 0
0.11 -0.048812 0
0.106667 -0.048812 0
0.103333 -0.048812 0
0.1 -0.048812 0
0.0966667 -0.048812 0
0.0933333 -0.048812 0
0.09 -0.048812 0
0.0866667 -0.048812 0
0.0833333 -0.048812 0
0.08 -0.048812 0
0.0766667 -0.048812 0
0.0733333 -0.048812 0
0.07 -0.048812 0
0.0666667 -0.048812 0
0.0633333 -0.048812 0
0.06 -0.048812 0
0.0566667 -0.048812 0
0.0533333 -0.048812 0
0.05 -0.048812 0
0.0466667 -0.048812 0
0.0433333 -0.048812 0
0.04 -0.048812 0
0.0366667 -0.048812 0
0.0333333 -0.048812 0
0.03 -0.048812 0
0.0266667 -0.048812 0
0.125 -0.0516987 0
0.121667 -0.0516987 0
0.118333 -0.0516987 0
0.115 -0.0516987 0
0.111667 -0.0516987 0
0.108333 -0.0516987 0
[...]
POINT_DATA 961
SCALARS Temp float 1
LOOKUP_TABLE default
598.066
558.396
521.465
487.799
457.555
430.772
407.389
387.263
370.19
355.915
344.155
334.616
327.004
321.043
316.482
313.102
310.726
309.222
308.503
308.528
309.309
310.901
313.407
316.973
321.781
328.049
336.015
345.936
358.079
372.716
390.264
558.396
518.539
481.991
448.917
419.408
393.451
370.939
351.693
335.473
322.003
310.984
302.11
295.087
289.641
285.528
282.544
280.528
279.364
278.986
279.378
280.574
282.653
285.745
290.016
295.674
302.953
312.109
323.409
337.125
353.528
372.716
521.465
481.991
446.016
413.668
384.981
359.892
338.257
319.862
304.446
291.714
281.357
273.067
266.552
261.546
257.816
255.172
253.47
252.613
252.557
253.305
254.914
257.487
261.174
266.162
272.677
280.966
291.296
303.935
319.142
337.125
358.079
487.799
448.917
413.668
382.139
354.318
330.104
309.319
291.727
277.047
264.975
255.198
247.411
241.328
236.692
233.287
230.935
229.51
228.935
229.183
230.279
232.3
235.367
239.65
245.352
252.713
261.988
273.447
287.35
303.935
323.409
345.936
457.555
419.408
384.981
354.318
327.371
304.007
284.023
267.165
253.143
241.648
232.37
225.009
219.288
214.964
211.832
209.733
208.556
208.241
208.78
210.215
212.641
216.197
221.066
227.467
235.644
245.859
258.376
273.447
291.296
312.109
336.015
430.772
393.451
359.892
330.104
304.007
281.443
262.193
245.991
232.545
221.546
212.689
205.683
200.263
196.199
193.299
191.42
190.466
190.394
191.211
192.976
195.797
199.828
205.264
212.331
221.279
232.369
245.859
261.988
280.966
302.953
328.049
407.389
370.939
338.257
309.319
284.023
262.193
243.599
227.973
215.02
204.439
195.933
189.221
184.049
180.201
177.5
175.814
175.064
175.219
176.301
178.382
181.583
186.068
192.04
199.73
209.391
221.279
235.644
252.713
272.677
295.674
321.781
387.263
351.693
319.862
291.727
267.165
245.992
227.973
212.84
200.304
190.071
181.853
175.382
170.416
166.749
164.218
162.705
162.142
162.51
163.843
166.224
169.784
174.694
181.163
189.425
199.73
212.331
227.467
245.352
266.162
290.016
316.973
370.19
335.473
304.446
277.047
253.143
232.545
215.02
200.304
188.115
178.168
170.187
163.913
159.117
155.605
153.223
151.866
151.475
152.042
153.611
156.273
160.165
165.466
172.388
181.163
192.04
205.264
221.066
239.65
261.174
285.745
313.407
355.915
322.003
291.714
264.975
241.648
221.546
204.439
190.071
178.168
168.456
160.669
154.559
149.906
146.527
144.279
143.063
142.831
143.583
145.371
148.291
152.488
158.142
165.466
174.694
186.068
199.828
216.197
235.367
257.487
282.653
310.901
344.155
310.984
281.357
255.198
232.37
212.689
195.933
181.853
170.187
160.669
153.043
147.071
142.542
139.282
137.153
136.068
135.984
136.907
138.895
142.051
146.521
152.488
160.165
169.784
181.583
195.797
212.641
232.3
254.914
280.574
309.309
334.616
302.11
273.067
247.411
225.009
205.683
189.221
175.382
163.913
154.559
147.071
141.22
136.802
133.649
131.633
130.669
130.722
131.803
133.973
137.34
142.051
148.291
156.273
166.224
178.382
192.976
210.215
230.279
253.305
279.378
308.528
327.004
295.087
266.552
241.328
219.288
200.264
184.049
170.416
159.117
149.906
142.542
136.802
132.489
129.439
127.529
126.68
126.86
128.085
130.42
133.973
138.895
145.371
153.611
163.843
176.301
191.211
208.78
229.183
252.557
278.986
308.503
321.043
289.641
261.546
236.692
214.964
196.199
180.201
166.749
155.605
146.527
139.282
133.649
129.439
126.49
124.684
123.946
124.246
125.603
128.085
131.803
136.907
143.583
152.042
162.51
175.219
190.394
208.241
228.935
252.613
279.364
309.222
316.482
285.528
257.816
233.287
211.832
193.299
177.5
164.218
153.223
144.279
137.153
131.633
127.529
124.684
122.983
122.352
122.766
124.246
126.86
130.722
135.984
142.831
151.475
162.142
175.064
190.466
208.556
229.51
253.47
280.528
310.726
313.102
282.544
255.172
230.935
209.733
191.42
175.814
162.705
151.866
143.063
136.068
130.669
126.68
123.946
122.352
121.829
122.352
123.946
126.68
130.669
136.068
143.063
151.866
162.705
175.814
191.42
209.733
230.935
255.172
282.544
313.102
310.727
280.528
253.47
229.51
208.556
190.466
175.064
162.142
151.475
142.831
135.984
130.722
126.86
124.246
122.766
122.352
122.983
124.684
127.529
131.633
137.153
144.279
153.223
164.218
177.5
193.299
211.832
233.286
257.816
285.528
316.482
309.222
279.364
252.613
228.935
208.241
190.394
175.219
162.51
152.042
143.583
136.907
131.803
128.085
125.603
124.246
123.946
124.684
126.49
129.439
133.649
139.282
146.527
155.605
166.749
180.201
196.199
214.964
236.692
261.546
289.641
321.043
308.503
278.986
252.557
229.183
208.78
191.211
176.301
163.843
153.611
145.371
138.895
133.973
130.42
128.085
126.86
126.68
127.529
129.439
132.489
136.802
142.542
149.906
159.117
170.416
184.049
200.263
219.288
241.328
266.552
295.087
327.004
308.528
279.378
253.305
230.279
210.215
192.976
178.382
166.224
156.273
148.291
142.051
137.34
133.973
131.803
130.722
130.669
131.633
133.649
136.802
141.22
147.071
154.559
163.913
175.382
189.221
205.683
225.009
247.411
273.067
302.11
334.616
309.309
280.574
254.914
232.3
212.641
195.797
181.583
169.784
160.165
152.488
146.521
142.051
138.895
136.907
135.984
136.068
137.153
139.282
142.542
147.071
153.043
160.669
170.187
181.853
195.933
212.689
232.37
255.198
281.357
310.984
344.155
310.901
282.653
257.487
235.367
216.197
199.828
186.068
174.694
165.466
158.142
152.488
148.291
145.371
143.583
142.831
143.063
144.279
146.527
149.906
154.559
160.669
168.456
178.168
190.071
204.439
221.546
241.648
264.975
291.714
322.003
355.915
313.407
285.745
261.174
239.65
221.066
205.264
192.04
181.163
172.388
165.467
160.165
156.273
153.611
152.042
151.475
151.866
153.223
155.605
159.117
163.913
170.187
178.168
188.115
200.304
215.02
232.545
253.143
277.047
304.446
335.473
370.19
316.973
290.016
266.162
245.352
227.467
212.331
199.73
189.425
181.163
174.694
169.784
166.224
163.843
162.51
162.142
162.705
164.218
166.749
170.416
175.382
181.853
190.071
200.304
212.84
227.973
245.991
267.165
291.727
319.862
351.693
387.263
321.781
295.674
272.677
252.713
235.644
221.279
209.391
199.73
192.04
186.068
181.583
178.382
176.301
175.219
175.064
175.814
177.5
180.201
184.049
189.221
195.933
204.439
215.02
227.973
243.599
262.193
284.023
309.319
338.257
370.939
407.389
328.049
302.953
280.966
261.988
245.859
232.369
221.279
212.331
205.264
199.828
195.797
192.976
191.211
190.394
190.466
191.42
193.299
196.199
200.263
205.683
212.689
221.546
232.545
245.991
262.193
281.443
304.007
330.104
359.892
393.451
430.772
336.015
312.109
291.296
273.447
258.376
245.859
235.644
227.467
221.066
216.197
212.641
210.215
208.779
208.241
208.556
209.733
211.832
214.964
219.288
225.009
232.37
241.648
253.143
267.165
284.023
304.007
327.371
354.318
384.981
419.408
457.555
345.936
323.409
303.935
287.35
273.447
261.988
252.713
245.352
239.65
235.367
232.3
230.279
229.183
228.935
229.51
230.935
233.287
236.693
241.328
247.411
255.198
264.975
277.047
291.727
309.319
330.104
354.318
382.139
413.668
448.917
487.799
358.079
337.125
319.142
303.935
291.296
280.966
272.677
266.162
261.174
257.487
254.914
253.305
252.557
252.613
253.47
255.172
257.816
261.546
266.552
273.067
281.357
291.714
304.446
319.862
338.257
359.892
384.981
413.668
446.016
481.991
521.465
372.716
353.528
337.125
323.409
312.109
302.953
295.674
290.016
285.745
282.653
280.574
279.378
278.986
279.364
280.528
282.544
285.528
289.641
295.087
302.11
310.984
322.003
335.473
351.693
370.939
393.451
419.408
448.917
481.991
518.539
558.396
390.264
372.716
358.079
345.936
336.015
328.049
321.781
316.973
313.407
310.901
309.309
308.528
308.503
309.222
310.726
313.102
316.482
321.043
327.004
334.616
344.155
355.915
370.19
387.263
407.389
430.772
457.555
487.799
521.465
558.396
598.065
